22
Energy: -495.81057113104083 Ha
C      -1.311441659927368      2.110743284225464     -0.078016601502895
C      -3.058531522750854      0.226879045367241     -0.023818729445338
C      -2.926355600357056     -1.190017223358154      0.058650616556406
C      -0.929348647594452     -0.396521002054214     -0.022606952115893
C       0.649488747119904     -0.282239496707916      0.023533126339316
C       1.341546893119812     -0.173315301537514      1.162605762481689
C       2.651794672012329      0.028439020738006      1.188596010208130
C       3.356843471527100      0.035311616957188      0.000037648467696
C       2.648526430130005     -0.151090860366821     -1.191416144371033
C       1.280342102050781     -0.300244003534317     -1.207965612411499
H       0.930392920970917     -0.425716638565063     -1.973895072937012
H       3.097924947738647     -0.128168880939484     -2.115676164627075
H       4.528138160705566      0.151438519358635      0.005618684459478
H       3.187820434570312      0.326649338006973      2.221293210983276
H       0.802251279354095     -0.107786484062672      2.192681789398193
H      -1.698940396308899      2.560837268829346     -1.183015108108521
H      -3.878870487213135      0.844680666923523      0.019531270489097
H      -1.636973500251770      2.621551990509033      1.040094614028931
H      -0.358558177947998      2.233469724655151     -0.322494655847549
H      -3.623728036880493     -1.894556879997253      0.031987544149160
N      -1.733715295791626      0.682801067829132     -0.028159463778138
N      -1.632948637008667     -1.487096667289734      0.117628052830696
