22
Energy: -495.91151936517076 Ha
C       2.348708152770996     -0.634379744529724      0.111942194402218
C       2.766652822494507      0.675939619541168     -0.093440160155296
C       1.848908901214600      1.747615218162537     -0.317633360624313
C       0.534257471561432      1.606085538864136     -0.320415705442429
C       0.019107462838292      0.321667999029160      0.006819199305028
C       0.950366973876953     -0.754923462867737      0.169493138790131
C      -1.984752893447876     -0.932529747486115     -0.712250232696533
C      -3.326137304306030     -0.869630515575409     -0.451609075069427
C      -3.472094774246216      0.240811586380005      0.378417283296585
C      -2.257810115814209      0.638805985450745      0.844492137432098
H      -1.933689713478088      1.209544062614441      1.745306849479675
H      -4.451683521270752      0.532507479190826      0.760688960552216
H      -4.105737686157227     -1.449360013008118     -0.903598546981812
H      -1.524228930473328     -1.532281517982483     -1.489914655685425
H       0.340765923261642     -1.695832729339600      0.359535694122314
H       3.142744541168213     -2.595654487609863      0.108142338693142
H       2.401780605316162      2.652028083801270     -0.648131251335144
H       3.814289569854736      1.040925741195679      0.070091366767883
H       4.135952949523926     -1.251476526260376      0.135311707854271
H      -0.032648369669914      2.435040235519409     -0.774384021759033
N       3.285041093826294     -1.630351901054382      0.319609373807907
N      -1.335153222084045     -0.024250183254480      0.100684754550457
