25
Energy: -626.2257003022273 Ha
C       3.904833555221558     -1.039887905120850     -0.029457462951541
C       2.901327133178711     -0.079830974340439      0.175041601061821
C       3.041979789733887      1.383983254432678      0.319763213396072
C       0.726660847663879      1.770549297332764     -0.223552808165550
C       0.445447385311127      0.359808862209320     -0.271451294422150
C      -1.265470981597900     -1.161451578140259     -0.039969712495804
C      -2.852141380310059     -1.155368924140930     -0.057454090565443
C      -3.395467758178711     -0.294239640235901      1.289571762084961
C      -4.197415351867676      0.643883526325226      0.179150253534317
C       1.529324650764465     -0.516506314277649      0.029987173154950
H       1.476476550102234     -1.557234168052673      0.307574599981308
H      -3.108253717422485      0.292232066392899     -1.787837266921997
H      -3.936176776885986      1.814936637878418      0.113822884857655
H      -5.351284027099609      0.666401147842407      0.407067239284515
H      -4.071699142456055     -0.613159060478210      2.239661216735840
H      -1.047702550888062     -1.314895987510681      1.173853993415833
H      -3.166088819503784     -2.264852285385132     -0.170609027147293
H      -0.956800878047943     -1.953255295753479     -0.712888836860657
H      -0.186154350638390      2.501917600631714     -0.457460939884186
H       3.963552474975586      1.696803331375122      0.653221905231476
H      -2.494035243988037      0.223390683531761      1.636382222175598
N      -3.609521150588989     -0.254084885120392     -0.939103126525879
N       4.552215576171875     -1.971072435379028     -0.007424665149301
N       2.006681919097900      2.200284242630005      0.106489159166813
O      -0.850241899490356      0.152023613452911     -0.719036161899567
