25
Energy: -667.1423716548825 Ha
C      -0.951614320278168      2.477855682373047     -1.013202190399170
C      -1.934434413909912      0.636937320232391      0.167903646826744
C      -3.319676637649536      0.337701410055161      0.269730687141418
C      -3.723932266235352     -1.010715723037720      0.305090487003326
C      -2.798987388610840     -1.962560653686523      0.029685541987419
C      -1.349654197692871     -1.755200266838074      0.026457628235221
C      -0.975553154945374     -0.437065064907074      0.075815327465534
C       0.465588420629501     -0.100856192409992     -0.064074747264385
C       1.539239168167114     -0.900608420372009     -0.459357917308807
C       3.060010433197021     -0.594764113426208     -0.504800915718079
H       2.189169883728027      1.190760135650635      1.877976536750793
H       4.352282524108887      1.092884182929993      0.248302802443504
H       0.973468720912933     -1.732199549674988     -0.932523787021637
H       0.638204634189606      1.011228322982788     -0.103181928396225
H      -0.590553581714630     -2.415755033493042      0.277101010084152
H      -0.846783518791199      3.631979703903198     -0.918761730194092
H      -4.783970832824707     -1.342614173889160      0.202446952462196
H      -3.914898395538330      1.222591638565063      0.015513535588980
H      -1.638089656829834      2.310452938079834     -2.001497030258179
H      -0.053334813565016      1.962249994277954     -1.234616160392761
H      -3.044760704040527     -2.993714332580566     -0.310123473405838
N       3.294980049133301      0.526793956756592      0.424216300249100
O       4.042413234710693     -0.936787068843842     -1.143293738365173
O      -1.627859950065613      2.085100650787354      0.172149702906609
O       3.034008026123047      0.380465716123581      1.834939599037170
