29
Energy: -669.5338814054535 Ha
C       4.594634532928467     -0.364790022373199     -0.152889102697372
C      -2.483457088470459     -1.646178126335144     -0.729791522026062
C       0.970820009708405     -1.074987292289734      0.142672806978226
C      -0.238112673163414     -0.362711429595947      0.075179375708103
C      -1.606389403343201      2.445441722869873      0.557651698589325
C      -1.478481173515320     -1.171420216560364      0.456592530012131
C       0.983558773994446      1.532674193382263     -0.402880489826202
C       2.206837415695190      0.960082173347473     -0.200996801257133
C       2.270892381668091     -0.401493638753891      0.026835171505809
C      -0.286055892705917      0.957064390182495     -0.293784499168396
H      -1.059462070465088     -2.056439399719238      1.051282048225403
H      -4.230919361114502     -1.194966554641724     -1.532836794853210
H      -3.198046922683716      0.091506406664848     -1.094230771064758
H      -1.768207788467407     -1.719250202178955     -1.565366506576538
H      -2.832656621932983     -2.767008304595947     -0.388659447431564
H      -3.292030334472656     -0.624783575534821      1.329073786735535
H       0.995526671409607     -2.114322423934937      0.304582059383392
H       0.922643542289734      2.668340921401978     -0.422681182622910
H      -1.307222843170166      3.823789119720459     -0.251216739416122
H      -2.978554487228394      2.402536392211914      0.790918409824371
H       2.990618705749512      1.655256271362305     -0.301318526268005
H       4.451881885528564      0.706738114356995      0.433483034372330
H       5.438676834106445     -0.906017005443573      0.333773612976074
H       4.677326679229736     -0.136257305741310     -1.119202256202698
H      -0.990082085132599      2.322274923324585      1.739428400993347
N      -3.587980508804321     -0.746772944927216     -0.854079186916351
O      -1.465421795845032      1.478880643844604     -0.477128326892853
O       3.380129575729370     -1.136511445045471      0.157437220215797
O      -2.203346490859985     -0.613128840923309      1.544689893722534
