30
Energy: -608.8313773051726 Ha
C       2.913509368896484      1.637532114982605      0.038268327713013
C       0.598452031612396     -2.122638225555420     -0.044338043779135
C      -3.576800346374512      1.125492691993713     -0.430295288562775
C      -3.517091035842896     -0.328751057386398      0.296304702758789
C      -2.152954816818237     -0.622519075870514      0.869756937026978
C      -0.648545444011688     -1.644547343254089     -0.829696536064148
C       0.885618269443512     -0.188509747385979      1.114490866661072
C       2.487617492675781     -0.679188072681427     -0.764690876007080
C       3.508809328079224      0.261429518461227     -0.172850102186203
C      -0.044495344161987      0.503465473651886      0.151892721652985
H      -2.068433761596680     -1.526181101799011      1.469698071479797
H       1.078094005584717     -2.888704776763916     -0.728770554065704
H       0.292130768299103     -2.684804916381836      0.930018723011017
H      -1.456728696823120     -2.456774711608887     -0.796952128410339
H      -0.442903339862823     -1.419314026832581     -1.920339822769165
H      -4.275988101959229     -0.248719394207001      1.170497179031372
H      -3.860880613327026     -1.125630021095276     -0.246817797422409
H      -1.962050318717957      0.112640328705311      1.628165483474731
H       1.790766596794128      0.478518694639206      1.391245007514954
H       0.295918166637421      1.142669200897217     -0.736205995082855
H       0.409118413925171     -0.539153575897217      2.006742715835571
H       1.948893785476685     -0.109785832464695     -1.623211383819580
H       3.079695701599121     -1.470669031143188     -1.372579813003540
H       3.978033542633057      0.062116622924805      0.802996456623077
H       4.475237369537354      0.373172014951706     -0.805788993835449
H      -0.555466949939728      1.269596576690674      0.772361874580383
N      -1.132136106491089     -0.401255846023560     -0.167010560631752
N       2.713077545166016      2.738931417465210      0.197097525000572
N       1.641791224479675     -1.156313896179199      0.213709637522697
N      -4.001326084136963      2.158699274063110     -0.717241644859314
