31
Energy: -725.0358010374614 Ha
C      -1.239776492118835      0.368058264255524     -0.070968694984913
C       1.637690424919128     -1.961295962333679     -0.298568665981293
C       2.780004024505615     -0.282705932855606      0.907649040222168
C       1.436615109443665      1.397049665451050     -0.278383374214172
C       1.400602936744690      0.310456126928329      0.665664136409760
C       3.061265230178833     -1.341804265975952     -0.128743752837181
C      -3.447949886322021      0.170837774872780      1.007942438125610
C      -2.019235610961914      0.660097956657410      1.264232635498047
C      -0.652813851833344     -0.966269731521606     -0.056687407195568
C      -3.416583299636841     -0.061392944306135     -0.567757189273834
H       3.520095825195312      0.575788974761963      1.047807216644287
H       2.172646999359131      3.145116806030273     -0.565534651279449
H       1.405774354934692     -2.303092479705811     -1.369258046150208
H       1.508446574211121     -2.822513818740845      0.369791805744171
H       3.889368057250977     -2.028101444244385      0.170805752277374
H       3.357716560363770     -0.967996597290039     -1.157846331596375
H       2.844224691390991     -0.851054310798645      1.869807839393616
H       0.854235887527466      0.563439846038818      1.573913335800171
H      -3.587138414382935     -0.791028618812561      1.465113162994385
H      -3.288387537002563     -1.196001648902893     -0.796373307704926
H      -4.233793258666992      0.823266863822937      1.267847657203674
H      -1.542526125907898      0.261167019605637      2.232014179229736
H      -2.122297286987305      1.650557279586792      1.229707241058350
H      -0.317990362644196      0.864339828491211     -0.042488224804401
H      -2.261079788208008      1.429530024528503     -1.284070253372192
H      -4.462388515472412      0.224745556712151     -1.055673003196716
N      -2.180887699127197      0.437565296888351     -1.172705173492432
N       0.722816050052643     -0.905608296394348      0.153337299823761
O       1.133968234062195      1.427503228187561     -1.482834100723267
O      -1.193213224411011     -2.037764310836792     -0.342160791158676
O       1.963080286979675      2.477755069732666      0.264211893081665
