31
Energy: -725.0812294383578 Ha
C      -1.761134386062622     -0.952418625354767     -0.247422993183136
C      -0.019080540165305      1.523432135581970      0.254811823368073
C       2.276140451431274      1.589495062828064     -0.742232322692871
C       2.550492048263550     -0.674022972583771      0.437077522277832
C       1.799654722213745      0.138769716024399     -0.624931871891022
C       1.351106762886047      2.400739192962646      0.164735868573189
C      -3.527763843536377      0.725523948669434     -0.175057634711266
C      -2.816177368164062     -0.189299970865250     -1.070263266563416
C      -0.347686499357224     -0.900113403797150     -0.727720081806183
C      -3.177366971969604      0.256390154361725      1.309251785278320
H       2.291174888610840      1.861340522766113     -1.804368495941162
H       2.367162704467773     -2.072526454925537      1.674455404281616
H       0.011218190193176      1.249256014823914      1.360296130180359
H      -1.009055256843567      1.975605368614197     -0.106625087559223
H       1.846553683280945      2.603934049606323      1.154783368110657
H       1.106570005416870      3.368557929992676     -0.290706038475037
H       3.328687667846680      1.650855183601379     -0.404531478881836
H       1.911535382270813     -0.395934104919434     -1.555617570877075
H      -3.118796586990356      1.784973502159119     -0.324269592761993
H      -3.326639890670776      1.042062878608704      2.075382232666016
H      -4.499566078186035      0.835443437099457     -0.442254275083542
H      -3.544399023056030     -0.882315695285797     -1.428076028823853
H      -2.361092805862427      0.259341865777969     -1.925896763801575
H      -1.930824398994446     -2.078671932220459     -0.277508050203323
H      -1.594552040100098     -1.042381763458252      1.952385902404785
H      -3.992842912673950     -0.437788903713226      1.584949493408203
N      -1.892338395118713     -0.448280334472656      1.153865337371826
N       0.362278252840042      0.207767575979233     -0.349144697189331
O       3.730040311813354     -0.582455158233643      0.496228128671646
O       0.118027955293655     -1.824714660644531     -1.421825528144836
O       1.808954238891602     -1.536471962928772      1.132480263710022
