32
Energy: -501.9167062904695 Ha
C      -1.573020577430725     -1.292220830917358      0.021311653777957
C      -0.655772030353546      0.930563330650330      1.228398919105530
C       1.412204384803772     -0.612849056720734      1.172754168510437
C       2.385150194168091     -1.238126039505005      0.275115460157394
C       3.169555425643921     -0.148730322718620     -0.414792209863663
C      -2.004832267761230      1.108612895011902      0.518001258373260
C       1.117741346359253      1.380405068397522     -0.331346780061722
C       0.356060385704041      0.215660735964775      0.311722993850708
C      -0.401801735162735     -0.736705005168915     -0.661333501338959
C       2.345158100128174      0.816827595233917     -1.148602247238159
H       4.045135021209717     -0.612394690513611     -0.929111301898956
H      -1.782999157905579      1.734588384628296     -0.407000005245209
H      -2.758530139923096      1.652193188667297      1.099201321601868
H      -0.581407010555267      0.357169002294540      2.173255681991577
H      -0.169952645897865      1.899147391319275      1.505517005920410
H       0.897281110286713     -1.423182606697083      1.777134895324707
H       1.842007040977478      0.026542888954282      1.905294299125671
H       3.094421625137329     -1.681604385375977      0.869200348854065
H       2.124532222747803     -2.117815017700195     -0.365131109952927
H       3.664410114288330      0.396303862333298      0.436284214258194
H      -0.874619126319885     -0.116787634789944     -1.359381914138794
H       2.879543304443359      1.636575579643250     -1.475526094436646
H       1.528163552284241      2.116505146026611      0.368962585926056
H       0.576700150966644      1.959776878356934     -1.070587515830994
H       0.162668392062187     -1.459275007247925     -1.190571308135986
H      -2.010898351669312     -2.017974376678467     -0.621195495128632
H      -1.385614037513733     -1.683617949485779      0.987817347049713
H      -4.114697456359863     -1.012566208839417     -0.745576262474060
H      -3.294686317443848     -0.018286047503352     -1.814368963241577
H       1.857186675071716      0.345445334911346     -2.001389265060425
N      -3.546725988388062     -0.154059231281281     -0.829259753227234
N      -2.539174556732178     -0.206137016415596      0.119230210781097
