33
Energy: -875.4513461110039 Ha
C       1.379977583885193      0.763833343982697     -0.539490818977356
C      -1.564409375190735      1.696190237998962     -0.526533961296082
C      -2.979349851608276      0.893168568611145      1.257134556770325
C      -2.872312307357788     -1.309458136558533     -0.061872806400061
C      -2.072827816009521     -0.244046121835709      0.840134739875793
C      -2.979512929916382      1.816138267517090     -0.003672171616927
C       2.872081041336060     -0.017122766003013      1.382382631301880
C       2.003501653671265      1.164119243621826      0.876470923423767
C       0.103185385465622     -0.079122118651867     -0.154842421412468
C       3.624491691589355     -0.584277927875519      0.227712243795395
H      -4.004920005798340      0.592879593372345      1.412675261497498
H      -1.074468612670898     -2.004515171051025     -0.390286803245544
H      -0.828301846981049      2.411554813385010     -0.056528817862272
H      -1.372237086296082      1.827473878860474     -1.602560281753540
H      -3.622406005859375      1.540703892707825     -0.718947231769562
H      -3.325819730758667      2.804373264312744      0.298690468072891
H      -2.620549917221069      1.398117542266846      2.122331857681274
H      -1.394260048866272     -0.739714384078979      1.577076077461243
H       2.241697072982788     -0.725978553295135      1.930054783821106
H       3.673084735870361      0.234637185931206      2.169117689132690
H       2.565746545791626      2.064588308334351      0.528593063354492
H       1.212778687477112      1.559562206268311      1.529904842376709
H       1.985351920127869     -0.105214484035969     -0.990526258945465
H       2.235918998718262      1.941267967224121     -1.823127150535583
H       0.726811468601227      1.479191184043884     -2.263411760330200
H       2.110809326171875     -1.697310209274292     -0.298130720853806
N       1.231194257736206      1.838305950164795     -1.514821410179138
N      -1.173514842987061      0.361814647912979     -0.197158783674240
O      -4.072424411773682     -1.329509019851685     -0.280026435852051
O       0.377298474311829     -1.290837764739990      0.089729242026806
O       4.698503494262695     -0.140196248888969     -0.046674523502588
O       3.038495302200317     -1.564514160156250     -0.521661102771759
O      -2.042115926742554     -2.247317552566528     -0.644567310810089
