33
Energy: -875.3936919285129 Ha
C       1.781139492988586     -0.549848794937134      0.286810070276260
C      -2.674005985260010     -1.875792264938354      0.129467085003853
C      -1.493936896324158      0.244324639439583      1.147341370582581
C      -1.431302785873413      2.070177078247070     -0.478985160589218
C      -0.538513541221619      0.995721220970154      0.222625792026520
C      -1.499553561210632     -1.371322512626648      0.943102419376373
C       4.007052421569824     -1.122053384780884     -0.945356607437134
C       3.198599815368652     -1.239272356033325      0.447459787130356
C       1.540582895278931      0.761029064655304      1.193618535995483
C       2.708834886550903     -0.815797388553619     -1.990967750549316
H      -0.348897218704224      0.357690095901489     -0.598278045654297
H      -2.977338552474976      0.809918105602264     -0.829662859439850
H      -3.859047651290894     -1.266747832298279     -1.401639342308044
H      -1.398682117462158     -2.007535457611084      1.820883750915527
H      -0.647741854190826     -1.695514678955078      0.392641097307205
H      -1.213950634002686      0.409673243761063      2.167730331420898
H      -2.430520057678223      0.637001752853394      0.958380937576294
H       0.683534085750580      2.412234306335449      1.393736124038696
H       2.217780113220215     -1.694517731666565     -2.500278234481812
H       4.409191131591797     -0.135857254266739     -1.003753185272217
H       4.550084590911865     -2.057814836502075     -1.109149575233459
H       3.802651643753052     -0.830971240997314      1.215241312980652
H       2.920508861541748     -2.354140281677246      0.585527658462524
H       0.989627778530121     -1.104326844215393      0.353817731142044
H       1.950798749923706      0.919700264930725     -1.172153472900391
H       3.125180959701538     -0.192003816366196     -2.760363101959229
N       1.801411032676697     -0.058359950780869     -1.135044336318970
N       0.708648562431335      1.654317617416382      0.708800613880157
O      -3.116203546524048     -0.979647874832153     -0.792122662067413
O       2.200823783874512      0.782818555831909      2.219599246978760
O      -0.963684856891632      3.133857011795044     -0.730455756187439
O      -3.311098337173462     -2.872571945190430      0.287426710128784
O      -2.676959037780762      1.690358757972717     -1.016905903816223
