40
Energy: -967.3766565621261 Ha
C      -3.082348823547363     -0.265807479619980     -0.022552086040378
C       3.054709911346436     -0.548570394515991      0.339007169008255
C       2.093194961547852      0.621107757091522      0.309688687324524
C       1.028929829597473      0.449288576841354      1.301353335380554
C      -0.356162190437317      2.304738044738770      0.203912869095802
C       5.412089824676514     -0.937156200408936     -0.268454700708389
C      -4.391749858856201     -2.231488943099976      0.968089938163757
C      -4.402055740356445     -1.139021754264832     -0.013376314193010
C      -1.838173627853394     -0.899495422840118     -0.506143093109131
C      -0.338345766067505      0.884804725646973      0.659505844116211
H       2.583285808563232      1.549765586853027      0.464968323707581
H      -2.101352691650391      1.927751421928406     -0.835680544376373
H       7.322351932525635     -0.584520041942596     -0.443566203117371
H       6.544466495513916      0.859496295452118     -0.672368943691254
H       4.688276767730713     -2.230587720870972      0.932935535907745
H       4.030688285827637     -0.093554094433784     -1.346565842628479
H       2.683395147323608     -1.544064998626709     -0.035877458751202
H       3.322610139846802     -0.706930279731750      1.423265695571899
H       1.640257000923157      0.793040752410889     -0.681128859519958
H       1.318557620048523      1.100769519805908      2.209233522415161
H      -1.096009492874146      0.844850420951843      1.449982166290283
H      -4.177006244659424      1.331344723701477     -0.836510896682739
H       0.079758688807487     -0.679866671562195     -0.587161004543304
H      -5.434574604034424     -2.484178781509399      1.137634158134460
H      -4.002281665802002     -3.230224132537842      0.729032397270203
H      -3.920782804489136     -1.967606186866760      1.968801736831665
H      -6.159328937530518     -0.342803061008453     -0.468312144279480
H      -4.464675903320312     -1.613150477409363     -0.980279982089996
H      -3.088992118835449      0.122204117476940      0.996538102626801
H      -3.350325584411621      0.489872246980667     -1.906671166419983
H       0.781595528125763     -0.538249313831329      1.727434277534485
N      -3.284751176834106      0.816516876220703     -0.987904369831085
N      -0.716019630432129     -0.170922130346298     -0.262400984764099
N       4.201545715332031     -0.139239713549614     -0.352000147104263
N       5.502307415008545     -2.024941921234131      0.391042292118073
N       6.486122608184814     -0.182439699769020     -0.751599907875061
O      -5.481591224670410     -0.195189058780670      0.165324255824089
O       0.468802154064178      3.159193277359009      0.616341948509216
O      -1.833996176719666     -1.924787282943726     -1.157724380493164
O      -1.353824734687805      2.644962310791016     -0.665423214435577
