41
Energy: -968.3337773028178 Ha
C      -1.062522888183594      2.041185379028320     -0.460733979940414
C       4.325250148773193     -0.437789559364319     -1.230275750160217
C       3.272071361541748      0.520469188690186      0.883636593818665
C       2.296942472457886     -0.623481392860413      1.215638875961304
C       0.024372646585107     -1.515712380409241      0.417767643928528
C       0.996807575225830     -0.275995761156082      0.496309190988541
C       3.638514041900635      0.731007814407349     -0.549558341503143
C      -3.830921649932861      0.407914370298386     -0.283222347497940
C      -2.679909229278564      0.017449479550123     -0.804219663143158
C      -1.544964790344238      0.848222553730011     -1.296067595481873
C      -0.769180655479431      1.599600076675415      1.008061051368713
C      -3.789789438247681     -1.784299492835999     -0.333429425954819
H       4.178263664245605      0.320617258548737      1.457397699356079
H      -0.853505134582520     -2.507922887802124     -0.917622685432434
H       6.044253349304199     -1.510629653930664     -0.960402548313141
H       5.048805713653564     -1.491599440574646      0.374933302402496
H       3.608943700790405     -1.220751762390137     -1.449106812477112
H       4.723158836364746     -0.036837160587311     -2.166442155838013
H       4.237773895263672      1.621179938316345     -0.640303492546082
H       2.689429998397827      0.887746989727020     -1.153205871582031
H       2.887291431427002      1.476111888885498      1.240990877151489
H       2.203488588333130     -0.837840855121613      2.310906410217285
H       0.334916472434998      0.484138101339340      2.246888875961304
H       1.085943102836609      0.171791672706604     -0.496262460947037
H       0.004289084579796      3.724121570587158     -1.101085662841797
H       2.674084901809692     -1.555467724800110      0.782527208328247
H      -1.917238950729370      2.671198844909668     -0.387669682502747
H      -1.855877757072449      1.296239256858826     -2.284485340118408
H       0.855324327945709      2.426512956619263     -0.877171635627747
H      -4.207444667816162      1.437420845031738     -0.020821414887905
H      -4.064848423004150     -2.823550701141357     -0.153567835688591
H      -5.332592010498047     -0.886674404144287      0.618298053741455
H      -0.717620491981506      0.188464090228081     -1.588036417961121
N      -0.026126563549042      2.736882686614990     -1.230546951293945
N      -2.591773509979248     -1.377329587936401     -0.767840564250946
N      -4.566507339477539     -0.725518763065338      0.004203808493912
N       0.358655095100403      0.819916009902954      1.275327801704407
N       5.387405395507812     -0.955801010131836     -0.425341457128525
O      -0.427623987197876     -2.086909055709839      1.371253728866577
O      -1.567533373832703      1.926506042480469      1.851315379142761
O      -0.107145890593529     -1.901188850402832     -0.873795747756958
