44
Energy: -692.2479243617521 Ha
C       0.375632464885712      2.310662508010864      1.812385797500610
C      -0.776997268199921     -0.647715449333191     -1.242326259613037
C      -0.070687077939510     -2.026002168655396     -1.034350872039795
C       3.322570562362671      1.864003539085388     -0.719644963741302
C       2.532545804977417     -1.548840403556824      0.331203401088715
C       1.129175066947937     -1.558998703956604      0.932665705680847
C       2.788871765136719     -0.418135493993759     -0.746472358703613
C      -2.280991792678833     -1.693024277687073      0.391846448183060
C      -2.830697298049927      0.540858864784241     -0.606260061264038
C      -2.346670150756836      1.928438663482666     -0.949491798877716
C      -1.657317638397217      2.610092878341675      0.254568994045258
C      -1.103854179382324     -2.489553213119507      1.037100672721863
H       1.452087759971619      1.232163906097412     -0.371846616268158
H       3.285098314285278     -1.251184225082397      1.123658895492554
H       2.833173274993896     -2.559120655059814      0.072601206600666
H       2.315326929092407     -0.670158922672272     -1.748289465904236
H       3.887225151062012     -0.449461072683334     -0.859635949134827
H       4.358535766601562      1.815839648246765     -0.317441523075104
H      -0.086053088307381      0.190833851695061     -1.267423272132874
H       2.934109926223755      2.841483354568481     -0.366249859333038
H      -0.669674932956696     -2.767509222030640     -1.519019126892090
H       0.827588260173798     -2.130399703979492     -1.638742327690125
H      -1.290364742279053     -0.678359448909760     -2.217705726623535
H       1.191693305969238     -1.833278775215149      1.995483398437500
H       3.266311407089233      1.917272448539734     -1.888199925422668
H       0.783417403697968     -0.476271420717239      0.971720278263092
H      -3.255297183990479      0.077719762921333     -1.495101451873779
H      -1.419922113418579     -3.560297489166260      1.158241629600525
H       0.697302162647247      3.351958513259888      1.926201462745667
H       1.279675960540771      1.700390934944153      1.941890716552734
H      -0.244119733572006      2.173636913299561      2.708477020263672
H      -0.514004111289978      1.064232707023621      0.673158347606659
H      -0.998848080635071     -2.030107975006104      2.038758754730225
H      -2.290332317352295      2.419630765914917      1.132363677024841
H      -1.521631956100464      3.701101779937744      0.061534464359283
H      -3.214097738265991      2.591264963150024     -1.246105074882507
H      -3.596246719360352      0.636967360973358      0.141741544008255
H      -3.087928771972656     -1.407570600509644      1.102153658866882
H      -2.838025093078613     -2.252922058105469     -0.396895289421082
H      -1.683420896530151      1.923827290534973     -1.840685844421387
N       0.112839505076408     -2.400046825408936      0.315364360809326
N      -0.329360187053680      2.060736417770386      0.507038831710815
N      -1.766112685203552     -0.390056580305099     -0.145122870802879
N       2.426767587661743      0.900452315807343     -0.197564825415611
