44
Energy: -696.0387678895613 Ha
C      -1.807662844657898      3.302225112915039     -0.204100131988525
C       2.170557260513306      2.051101684570312      1.149420022964478
C       3.574927330017090      0.291294276714325      0.000632428389508
C       3.236477613449097     -1.083588123321533     -0.549280345439911
C       0.748057425022125     -1.728788495063782      0.079935587942600
C      -0.102762706577778     -2.927679777145386      0.469351530075073
C       2.276687622070312     -1.990222692489624      0.273966938257217
C      -2.153326511383057     -1.946993112564087     -0.666940331459045
C      -3.437296390533447     -1.188057422637939     -0.321885824203491
C      -3.167957544326782      0.386567920446396     -0.398045688867569
C      -2.000282764434814      0.849149525165558      0.425543993711472
C      -2.079073190689087      2.265447616577148      0.927770674228668
C      -1.562376499176025     -2.566931009292603      0.663410305976868
H       2.557870626449585     -1.957341074943542      1.375501394271851
H      -0.052604876458645     -3.711313486099243     -0.260467231273651
H       0.424670457839966     -0.917528986930847      0.728029668331146
H       0.516718268394470     -1.464065909385681     -1.005366206169128
H       2.435637712478638     -2.995972394943237     -0.013687148690224
H       4.188858032226562     -1.653697371482849     -0.546346664428711
H       2.256061553955078      3.128214836120605      0.822797894477844
H       4.296638965606689      0.734863221645355     -0.732489168643951
H       4.071444511413574      0.301985085010529      0.973068594932556
H       1.133577108383179      1.955765008926392      1.592796802520752
H       2.981091499328613      1.912636160850525      1.909216284751892
H       0.242937684059143     -3.248984813690186      1.469250559806824
H       2.924310684204102     -1.003211855888367     -1.569114089012146
H      -2.064304590225220     -3.472098827362061      0.972301065921783
H      -4.160781383514404      0.853390157222748     -0.138062193989754
H      -2.359507322311401     -2.864242315292358     -1.306878447532654
H      -1.362107038497925     -1.460646629333496     -1.283643841743469
H      -4.241861820220947     -1.574733495712280     -0.947432816028595
H      -3.691066026687622     -1.418331623077393      0.695022881031036
H      -3.083734273910522      0.588210046291351     -1.447283387184143
H      -1.815870285034180      0.268072247505188      1.303435444831848
H      -1.161487460136414      0.753492891788483     -0.218326702713966
H      -1.323339819908142      2.423497438430786      1.714869499206543
H      -2.971826553344727      2.588303565979004      1.439906120300293
H      -2.652397394180298      3.160313606262207     -0.972074985504150
H      -1.891014218330383      4.364179134368896      0.150767013430595
H      -0.881671905517578      3.078852176666260     -0.700798392295837
H      -1.755028247833252     -1.843467354774475      1.399771928787231
N       1.585976004600525      0.996996879577637     -1.056597590446472
N       2.375423908233643      1.114524364471436     -0.023681800812483
O       0.691646575927734      1.801507234573364     -1.117685437202454
