46
Energy: -850.0624504283131 Ha
C      -5.284552097320557      0.528580904006958      0.792465031147003
C       2.044897079467773     -2.801488876342773      0.771578967571259
C       1.289591073989868     -3.526434659957886     -0.314666301012039
C       3.530507564544678      3.571501731872559      1.081782221794128
C       2.762176513671875      2.982156991958618     -0.149342089891434
C       1.278291344642639      2.702174425125122      0.062480371445417
C       0.518185615539551      2.154989957809448     -1.298648834228516
C       1.240115165710449     -2.157447576522827      1.857659101486206
C       0.230252534151077     -0.472024679183960     -0.783557295799255
C      -1.302278518676758     -0.687996029853821     -0.606625616550446
C      -1.983815431594849      0.090383000671864      0.588457643985748
C      -2.833641052246094      1.324495792388916      0.329537570476532
C      -4.298833370208740      1.057125926017761     -0.199097603559494
C       0.664310276508331      0.655030727386475     -1.701850295066833
H       1.139692068099976      2.108450174331665      1.024605393409729
H       3.320008039474487      2.071143150329590     -0.499090492725372
H       2.717333555221558      3.545128345489502     -1.073283076286316
H       3.475830078125000      2.767360448837280      1.821862578392029
H       2.962394237518311      4.431293010711670      1.452494859695435
H       4.565076351165771      3.835772275924683      0.840801417827606
H       2.665598392486572     -1.984460949897766      0.282580524682999
H       2.043357849121094     -3.897277832031250     -0.993878424167633
H       2.800150156021118     -3.550694942474365      1.134254217147827
H       1.885798335075378     -1.733460545539856      2.665689468383789
H       0.607856512069702     -2.857286691665649      2.417614936828613
H       0.809350967407227      3.681116819381714      0.215433508157730
H       0.673191785812378     -4.291676044464111      0.081068567931652
H      -0.584133863449097      2.295125961303711     -1.235730290412903
H      -1.125045299530029      0.369585514068604      1.134415864944458
H       1.708108782768250      0.373461931943893     -1.839365243911743
H      -5.113508701324463     -0.478181481361389      1.179896235466003
H      -6.353541374206543      0.399936795234680      0.243660867214203
H      -5.459298610687256      1.301606655120850      1.610971808433533
H      -4.734765529632568      2.005288362503052     -0.545646190643311
H       0.856995403766632      2.711947441101074     -2.114953279495239
H      -2.918110609054565      1.887327790260315      1.323706746101379
H      -4.240621566772461      0.293256521224976     -1.100889682769775
H      -2.581991672515869     -0.606337189674377      1.031577944755554
H      -1.777358055114746     -0.352539628744125     -1.532302618026733
H      -1.226057887077332     -1.754814147949219     -0.352647006511688
H       0.101126752793789      0.454023778438568     -2.623786926269531
H      -2.440970659255981      1.910989880561829     -0.481746107339859
O       0.407045185565948     -1.119759917259216      1.484414696693420
O       0.762538015842438     -1.577620387077332     -1.538839936256409
O       0.301077842712402     -2.832077503204346     -1.145348072052002
O       0.915875911712646     -0.403338640928268      0.368729293346405
