49
Energy: -774.0670181082579 Ha
C       4.411562919616699     -1.033599257469177     -0.069093026220798
C      -1.525833368301392     -2.208724260330200      1.160056948661804
C       0.288798213005066     -2.050212860107422     -0.731696784496307
C      -1.150794386863708     -1.965225100517273     -1.134459376335144
C      -2.032610416412354     -1.967331647872925     -0.158766269683838
C      -3.673815011978149     -1.690552830696106     -0.279942363500595
C      -4.261975288391113     -0.318043857812881      0.001338701345958
C      -3.492180585861206      0.973085761070251     -0.634792208671570
C      -0.224241435527802     -2.210733652114868      1.449995636940002
C      -1.486278533935547      2.604927301406860     -0.700265049934387
C      -0.571453392505646      3.436196804046631      0.204538658261299
C       0.272496819496155      2.501268148422241      1.176344990730286
C       1.145273804664612      1.377002477645874      0.501697838306427
C       2.377306699752808      2.061977148056030     -0.396203935146332
C       3.002855777740479      0.781485021114349     -0.795107781887054
C       3.911399364471436      0.317918002605438      0.408028423786163
C      -2.264985322952271      1.640657186508179      0.153330191969872
H      -0.872796297073364      2.046787977218628     -1.519573450088501
H      -1.627636671066284      0.805703997612000      0.379808604717255
H      -2.319446802139282      2.150753736495972      1.325741291046143
H      -4.073978900909424      2.002692937850952     -0.632046997547150
H      -2.934747695922852      0.942994177341461     -1.686222553253174
H      -5.259249210357666     -0.152126923203468     -0.501910328865051
H      -1.095557212829590     -2.197173357009888     -2.223012685775757
H      -4.158632278442383     -2.158745527267456     -1.328791737556458
H      -4.096755981445312     -2.323848009109497      0.498675107955933
H       1.032016038894653     -1.981272697448730     -1.378192543983459
H       0.046154800802469     -2.275323629379272      2.508097171783447
H      -2.221451520919800     -2.116083383560181      2.097387075424194
H      -2.058331012725830      3.231442689895630     -1.307150959968567
H      -4.285345554351807     -0.120300985872746      1.142060279846191
H      -0.028747659176588      4.371866226196289     -0.387161761522293
H       2.118275880813599      0.223472133278847     -1.183541893959045
H      -0.548000872135162      1.943572044372559      1.693481206893921
H       1.123007774353027      3.079845666885376      1.919011354446411
H       0.511804282665253      0.670679390430450     -0.109520100057125
H       1.538049340248108      0.960823595523834      1.343015789985657
H       2.867281436920166      2.808053731918335      0.079108573496342
H       2.024263858795166      2.521183252334595     -1.291017055511475
H       3.688451051712036      0.932113766670227     -1.725384473800659
H       4.937147617340088      1.009349703788757      0.333962380886078
H       3.325697183609009      0.327428311109543      1.414773702621460
H       5.190972328186035     -1.504643917083740      0.565967082977295
H       4.943979740142822     -0.596575498580933     -1.125548601150513
H       2.186588764190674     -1.649320125579834     -0.069561883807182
H       3.547793865203857     -1.959751605987549     -1.466485500335693
H      -1.306806087493896      4.006328105926514      0.884839236736298
N       3.398113250732422     -2.139117956161499     -0.407418876886368
N       0.809435904026031     -1.932381033897400      0.524442553520203
