2
Energy: -113.21157926769108 Ha
C      -0.000000000000000      0.000000000000000     -0.620874524116516
O       0.000000000000000     -0.000000000000000      0.465655922889709
