2
Energy: -113.2064243024471 Ha
C       0.000000000000000     -0.000000000000000     -0.686264812946320
O      -0.000000000000000      0.000000000000000      0.514698624610901
