2
Energy: -109.43046596159985 Ha
N       0.000000000000000      0.000000000000000      0.559859335422516
N       0.000000000000000      0.000000000000000     -0.559859335422516
