2
Energy: -150.16387380896313 Ha
O       0.000000000000000      0.000000000000000      0.612770140171051
O       0.000000000000000      0.000000000000000     -0.612770140171051
