3
Energy: -93.31514939321461 Ha
C       0.014473460614681      0.497637867927551     -0.000000000000000
H      -0.188154995441437      1.678797006607056     -0.000000000000000
N       0.014473460614681     -0.666374921798706      0.000000000000000
