3
Energy: -188.42568510527727 Ha
C       0.000000000000000      0.076925121247768      0.000000000000000
O       1.179724931716919     -0.162000626325607     -0.000000000000000
O      -1.179724931716919      0.104306787252426      0.000000000000000
