3
Energy: -93.30956224463847 Ha
C       0.027754256501794      0.479520976543427      0.000000000000000
H      -0.360805332660675      1.617845654487610     -0.000000000000000
N       0.027754256501794     -0.642138779163361      0.000000000000000
