3
Energy: -188.41575795067143 Ha
C       0.000000000000000      0.146146088838577     -0.000000000000000
O       1.120044708251953      0.186857193708420     -0.000000000000000
O      -1.120044708251953     -0.296466767787933      0.000000000000001
