3
Energy: -130.36501203636413 Ha
H      -0.896525979042053      0.971790671348572     -0.000000000000000
N       0.059768401086330      0.620290398597717     -0.000000000000000
O       0.059768401086330     -0.664227962493896      0.000000000000000
