3
Energy: -76.3719341072048 Ha
H       0.863474905490875     -0.482256442308426     -0.000000000000000
H      -0.863474905490875     -0.388277053833008      0.000000000000000
O       0.000000000000000      0.108816690742970      0.000000000000000
