4
Energy: -114.38086655385808 Ha
C       0.509791612625122      0.026870004832745     -0.023425199091434
H       1.010899424552917      0.925699234008789      0.045212235301733
H       1.415517210960388     -0.839163362979889      0.043459527194500
O      -0.685645818710327     -0.030969487503171      0.006484928540885
