6
Energy: -277.7702939364698 Ha
C      -1.054985165596008      0.226593181490898      0.089176826179028
H      -2.197581529617310      0.456662565469742     -0.081966817378998
N      -0.080628737807274      1.077089309692383     -0.043524563312531
N       1.087236285209656      0.444274455308914      0.008433426730335
N      -0.588114261627197     -0.930389761924744     -0.048892706632614
O       0.699755012989044     -0.744129955768585      0.016849093139172
