7
Energy: -352.97429013782386 Ha
C      -0.706002056598663     -0.088955350220203      0.084961131215096
H      -2.305464982986450      0.790136158466339     -0.134644865989685
N       0.106267817318439      1.102850198745728      0.082568943500519
N       1.293918490409851      0.752018094062805     -0.077591419219971
N       0.139698058366776     -1.096161246299744      0.028477672487497
O      -1.973704338073730     -0.106950968503952     -0.056427750736475
O       1.443990111351013     -0.588968157768250     -0.019735783338547
