8
Energy: -428.01413632437635 Ha
C       0.030995411798358      0.829249978065491      0.181374773383141
H       2.284621715545654     -1.010769605636597      0.500321745872498
N       0.550117909908295     -0.456879466772079      0.355395555496216
N      -1.563781023025513     -0.461250871419907     -0.115403793752193
N      -1.290573120117188      0.794493257999420      0.011581515893340
O       1.475975036621094     -0.928229629993439     -0.255297720432281
O      -0.553538501262665     -1.270746469497681     -0.031435552984476
O       0.784945905208588      1.811567306518555     -0.131964638829231
