8
Energy: -333.10453405188395 Ha
C       0.647819101810455      0.110716909170151      0.011551971547306
H       2.278954982757568     -0.480055123567581      0.777635872364044
H       2.713636159896851      0.777670145034790     -0.257804781198502
N       2.033069372177124      0.011194620281458     -0.089816898107529
N      -0.354143917560577      1.137756705284119      0.024439424276352
N      -1.470310568809509      0.614394128322601      0.031660977751017
N       0.041004743427038     -1.057449817657471      0.008146120235324
O      -1.328355431556702     -0.737898230552673     -0.051268786191940
