9
Energy: -354.1986602707363 Ha
C      -0.085135437548161      0.719616711139679      0.189851611852646
H       0.708980560302734      1.488435506820679      0.400183141231537
H       2.855782747268677     -0.248554587364197      0.574051976203918
H       4.213518142700195     -0.115278236567974     -0.036639265716076
N      -1.425916433334351      1.050522446632385     -0.059459865093231
N      -2.074755668640137     -0.026174886152148     -0.213504180312157
N       0.049275591969490     -0.581150054931641      0.217599675059319
O      -1.194274187088013     -1.085006833076477     -0.003971186466515
O       3.305812597274780      0.016921212896705     -0.207173168659210
