10
Energy: -483.31565480832296 Ha
C      -0.396743506193161     -0.041510369628668     -0.233475282788277
H      -3.392669200897217      0.251675218343735     -0.322036713361740
H       1.753875970840454      2.108129024505615      0.365812629461288
N      -1.567680239677429      0.500793814659119     -0.375561505556107
N      -0.043670646846294     -1.272496104240417      0.345673918724060
N       1.170483946800232     -1.443586111068726      0.247570455074310
N       0.798089265823364      0.722821533679962     -0.476416915655136
O      -2.609572887420654     -0.123316131532192      0.212851300835609
O       1.782901406288147     -0.342093169689178     -0.443384051322937
O       1.016508698463440      1.507475018501282      0.626559495925903
