11
Energy: -396.2711750153739 Ha
C       2.404148101806641     -0.468958318233490     -0.131432041525841
H      -3.546490192413330     -0.707360744476318     -0.411225587129593
H      -1.053839206695557      0.247408822178841      1.236364006996155
H       2.830610752105713      1.467799305915833      0.314155369997025
H       4.234805583953857      0.464520126581192      0.099753461778164
H       2.923512935638428     -1.417198657989502     -0.391638129949570
N       3.235648870468140      0.591792464256287      0.007497210986912
O      -3.337094783782959      0.118462949991226      0.025363031774759
O      -2.019571065902710      0.400152981281281     -0.405239701271057
O      -1.153447628021240     -0.287268936634064      0.423767745494843
O       1.202234745025635     -0.404342770576477     -0.057803228497505
