13
Energy: -559.6590647156545 Ha
C       1.023402571678162      0.829110026359558      0.102830275893211
H      -1.300884008407593      0.383198171854019      1.365142583847046
H      -3.184875965118408     -1.248094916343689     -0.648696064949036
H       0.170890435576439     -0.224457398056984      1.678790807723999
H       2.185392141342163      0.640356123447418     -1.679139256477356
N       0.784548521041870     -0.258256345987320      0.926528990268707
N       1.346796035766602     -1.388733029365540      0.463086217641830
N       1.954845428466797     -1.112279534339905     -0.617588758468628
N       1.780402660369873      0.209148049354553     -0.859924793243408
O      -1.169688105583191     -0.226818948984146      0.548168003559113
O      -1.912640452384949      0.192712396383286     -0.543729782104492
O      -3.217280149459839     -0.289126664400101     -0.305424064397812
O       0.664972722530365      1.988881230354309      0.211261883378029
