13
Energy: -423.81803595806633 Ha
C      -0.030361665412784      0.612640678882599     -0.070160575211048
H      -2.231404066085815      0.809549987316132      0.876335024833679
H      -2.703556299209595      0.646501600742340     -0.697404026985168
H       2.416699409484863      0.974989354610443      0.737369537353516
H       2.834080457687378      0.419529795646667     -0.857538521289825
H       0.759068310260773      2.481015682220459      0.001711822347715
N      -2.388576507568359      0.142873212695122      0.091558426618576
N      -1.073276281356812     -0.245307087898254     -0.174282282590866
N      -0.621424853801727     -1.548946738243103      0.015208787284791
N       0.650279343128204     -1.488567829132080      0.104783155024052
N       1.064927697181702     -0.226878464221954     -0.073764592409134
N       2.405703783035278      0.162112712860107      0.064821369946003
N      -0.165164187550545      1.917938351631165      0.023173647001386
