13
Energy: -559.6797006586927 Ha
C      -1.226276159286499      0.537674546241760      0.272450357675552
H       4.494942665100098      0.103404112160206     -0.845286965370178
H       1.554727792739868      0.280491709709167     -0.134344905614853
H      -0.372016340494156      2.201413393020630      0.394249230623245
H      -1.109254956245422     -1.306342244148254      1.308871030807495
N      -0.291264802217484      1.254562616348267      0.739281594753265
N      -1.499782323837280     -0.787785410881042      0.539534687995911
N      -2.757018089294434     -1.079832315444946      0.145621612668037
N      -3.170300483703613     -0.149408146739006     -0.568266391754150
O       4.108034610748291      0.355826556682587      0.013362945057452
O       3.119614362716675     -0.685699701309204      0.181236878037453
O       2.052326917648315     -0.427437484264374     -0.637027084827423
O      -2.177748918533325      0.861339151859283     -0.601496696472168
