13
Energy: -423.77084837574927 Ha
C      -0.112076245248318     -0.684212505817413     -0.094565056264400
H      -3.082033634185791     -0.649375855922699      0.436962455511093
H      -1.846517801284790      0.432197898626328      0.978126347064972
H       1.756746888160706      0.788642466068268      1.379738450050354
H      -1.146664381027222      1.237685441970825     -1.157532691955566
H      -0.914636969566345      2.387579679489136     -0.142939388751984
N      -2.215126752853394     -0.213634699583054      0.327531576156616
N      -1.300766706466675     -1.127812027931213     -0.119305036962032
N       1.095222592353821     -1.212212681770325     -0.429888188838959
N       2.022701978683472     -0.486843585968018      0.013770371675491
N       1.517814397811890      0.658063650131226      0.423121422529221
N       0.095700755715370      0.713498651981354      0.274947166442871
N      -0.371894448995590      1.655875802040100     -0.622600853443146
