14
Energy: -444.87324323551695 Ha
C       1.977274656295776     -0.400486141443253      0.002308767056093
H      -2.835877895355225      0.471509128808975     -0.460270673036575
H      -2.439600229263306     -1.218710064888000      0.647593319416046
H       3.491978645324707      0.915524661540985      0.072361074388027
H       4.014949798583984     -0.617069542407990      0.071183286607265
H       0.671169519424438     -1.659250140190125     -0.443440109491348
H       1.389783382415771      1.515568614006042      0.624526381492615
N      -3.720084905624390     -0.010873245075345     -0.128482565283775
N      -3.439795732498169     -1.093520760536194      0.354134291410446
N       3.244382381439209     -0.003777786390856      0.293686389923096
N       1.705121040344238     -1.542153835296631     -0.432247191667557
N       1.088468551635742      0.633942842483521      0.157149329781532
N      -0.280954420566559      0.559958338737488     -0.044383738189936
O      -0.792000889778137      1.648789405822754     -0.240600198507309
