16
Energy: -392.0827880822654 Ha
C       0.789604127407074      0.179593697190285      0.074774838984013
H      -4.122538089752197     -1.360716462135315     -0.390495270490646
H      -2.888610601425171     -1.098908901214600      0.369498640298843
H      -1.700668573379517      1.698282599449158      0.306315124034882
H      -0.841490328311920      2.049829244613647     -1.084918141365051
H      -0.736346840858459     -0.565351247787476     -1.083270311355591
H       0.556505858898163      1.882404446601868      0.963224232196808
H       1.152242422103882     -1.843243837356567     -0.022821797057986
H       3.374744653701782     -0.322031438350677     -0.708111584186554
H       3.090632438659668     -0.275591313838959      0.829483985900879
N      -1.280674099922180      1.306508779525757     -0.537464141845703
N      -0.541649043560028      0.155267164111137     -0.363655477762222
N       1.295418620109558      1.162195086479187      0.712013185024261
N       1.565556526184082     -0.920914530754089     -0.270795941352844
N       2.929509162902832     -0.861653566360474      0.025312362238765
O      -3.799902915954590     -0.891506969928741      0.426822036504745
