16
Energy: -246.77593496326165 Ha
C       2.196538686752319     -0.662769496440887      0.256996363401413
C       0.828164994716644     -0.256288826465607     -0.304949879646301
H      -2.892273426055908     -1.018629908561707     -0.181935831904411
H      -1.973960161209106     -0.171195060014725     -1.280187726020813
H      -1.236106514930725      1.083458423614502      0.240246117115021
H      -1.127617597579956     -0.115076966583729      1.386325001716614
H       2.393460273742676     -1.742161393165588      0.200189098715782
H       3.007480144500732     -0.175626680254936     -0.321488589048386
H       2.300257682800293     -0.359476923942566      1.312446236610413
H       0.741815924644470     -0.553553700447083     -1.345498204231262
H       0.057973999530077     -0.794844508171082      0.233146056532860
H       1.151082634925842      1.581147313117981      0.541398465633392
H       0.951034367084503      1.683565139770508     -1.062732934951782
N      -1.971412420272827     -0.656507968902588     -0.366750687360764
N      -1.721188545227051      0.316010087728500      0.685283601284027
N       0.618119657039642      1.211461305618286     -0.237702459096909
