17
Energy: -513.1193546931787 Ha
C      -0.041478332132101      0.294322222471237      0.893592059612274
C       1.454874873161316      1.842503309249878      0.081945620477200
C       3.114167690277100     -0.186809748411179     -0.334124743938446
C       4.009881019592285     -1.283999443054199     -0.576353728771210
C       4.982320785522461     -1.619584560394287      0.272789657115936
C       2.355663776397705      0.725311994552612     -0.160024747252464
C      -3.662491321563721     -0.409114956855774      0.093200288712978
C      -2.523726463317871     -0.186432212591171      0.345830649137497
C      -1.164938330650330      0.080605819821358      0.642443180084229
C      -4.996984958648682     -0.670240879058838     -0.200003907084465
H       0.876364529132843      0.382356822490692      1.258374452590942
H       5.648434162139893     -2.444125652313232      0.062695458531380
H       5.135236263275146     -1.062717199325562      1.194361686706543
H       3.860622167587280     -1.838960528373718     -1.495513916015625
H       1.602373600006104      2.366004228591919      1.060197472572327
N      -6.102447509765625     -0.886223495006561     -0.443383276462555
O       0.553796291351318      2.160204887390137     -0.666524767875671
