17
Energy: -376.019459021 Ha
C      -1.606278896331787      1.403734922409058     -0.369707435369492
C      -0.573794722557068     -0.843795239925385     -0.389428228139877
H       4.781794071197510     -0.204069778323174     -0.400099009275436
H       3.301820516586304     -0.468368023633957     -0.369382917881012
H       0.600976884365082      0.604004204273224      1.340681195259094
H      -0.987790763378143     -1.664470553398132     -0.971043527126312
H       2.022340059280396      0.578239560127258      0.571932077407837
H      -2.997874736785889     -1.080257773399353     -0.506842255592346
H      -1.923667311668396      1.544336438179016     -1.402390480041504
H      -0.612086653709412      1.790341734886169     -0.329757213592529
H      -2.259130001068115      1.964508056640625      0.274415135383606
H      -2.757586240768433     -1.200978875160217      1.093055486679077
N       1.061125755310059      0.349487870931625      0.485137194395065
N      -1.504235744476318      0.056358058005571      0.160595089197159
N      -2.798436403274536     -0.518881261348724      0.309490442276001
N       0.680477380752563     -0.753146648406982     -0.189345672726631
O       3.979891061782837      0.105043895542622     -0.013361752033234
