18
Energy: -493.29319196152153 Ha
C      -5.236042976379395     -1.397417902946472      0.119208857417107
C       2.538487195968628      0.421071350574493      0.927698850631714
C       2.799548387527466     -1.786358118057251      0.050442252308130
C       2.867210626602173     -0.907149314880371      1.124719858169556
C      -0.217631012201309      2.494208097457886     -0.081791140139103
C       2.179272174835205     -1.199015021324158     -1.027852058410645
C      -2.142766714096069      0.771567463874817      0.052613262087107
C      -3.072177886962891      0.016177879646420      0.080820105969906
C      -4.216147422790527     -0.776029706001282      0.115770533680916
C      -1.117060899734497      1.697288870811462     -0.031257752329111
H      -6.142508983612061     -1.952047705650330      0.112163171172142
H       0.513841927051544      3.291785478591919     -0.076463073492050
H       3.213708162307739     -1.207872748374939      2.109330177307129
H       3.118686437606812     -2.830149650573730      0.095503062009811
H       1.934910774230957     -1.809630036354065     -1.909060835838318
H       2.620463609695435      1.143075704574585      1.748980998992920
N       1.904246568679810      0.091339379549026     -1.192066192626953
N       2.159288644790649      0.959914565086365     -0.245460972189903
