18
Energy: -534.4587167045734 Ha
C       2.080782175064087      0.163151368498802      0.140638753771782
C       1.007567286491394     -0.943627417087555     -0.128859221935272
C      -1.344783544540405     -1.439631462097168      0.087579533457756
C      -2.644860744476318     -0.975962221622467      0.164401262998581
C      -2.977066755294800      0.367501765489578      0.061190988868475
C      -0.340953826904297     -0.465617686510086      0.023834247142076
C      -0.646993219852448      0.903893411159515     -0.036661326885223
C       0.427743256092072      1.847613811492920     -0.233329087495804
C       1.703008294105530      1.524268984794617     -0.168213278055191
C      -1.951631188392639      1.330442786216736     -0.001346039236523
H       2.608606100082397      2.228921651840210     -0.146205008029938
H       0.174985542893410      2.959003448486328     -0.396103143692017
H      -2.198632001876831      2.327701807022095      0.095901817083359
H      -3.954309463500977      0.765592277050018      0.209411948919296
H      -3.474353313446045     -1.679483890533447      0.301279395818710
H      -1.116941452026367     -2.515046119689941      0.141458064317703
O       3.217147588729858     -0.172666445374489      0.513055920600891
O       1.293324232101440     -2.072194814682007     -0.470700651407242
