19
Energy: -609.5067468409482 Ha
C      -3.081546545028687      0.308490365743637      0.322589397430420
C       0.736027836799622      0.508909761905670     -0.254690676927567
C       1.881014585494995      1.404997229576111     -0.163053274154663
C       3.141421079635620      0.786318004131317      0.203214138746262
C       3.184273719787598     -0.610735535621643      0.344430208206177
C      -0.600702285766602      1.002902865409851     -0.298137426376343
C       0.923857390880585     -0.808207035064697     -0.148872911930084
C      -1.341477990150452     -1.172563552856445     -0.307083129882812
C      -1.671783566474915      0.065220929682255     -0.209691807627678
C       2.164818048477173     -1.491423726081848      0.000195301341591
H      -3.447333097457886      1.397889137268066      0.830692827701569
H      -2.301400661468506     -1.576336860656738     -0.195565864443779
H       2.089951276779175     -2.682844400405884     -0.104748129844666
H       4.121005058288574     -1.289895534515381      1.043559551239014
H       3.983652353286743      1.592607498168945      0.461319625377655
H       1.676942110061646      2.422462940216064     -0.166226089000702
O      -0.102952785789967     -1.661903142929077     -0.142237901687622
O      -3.897946357727051     -0.550440132617950      0.313843548297882
O      -0.766379714012146      2.233926057815552     -0.021909503266215
