19
Energy: -460.40539787284507 Ha
C       2.202249765396118     -0.142096400260925     -0.060140073299408
C      -0.204351291060448     -0.566177129745483      0.004017465747893
C      -1.283870816230774     -1.530785441398621      0.140007436275482
C      -2.630528211593628     -1.078730702400208      0.175124198198318
C      -2.987751722335815      0.300742447376251     -0.139079511165619
C       1.023141145706177     -0.996716976165771      0.051569212228060
C      -0.637647271156311      0.705849468708038     -0.153586968779564
C       0.446634531021118      1.606848120689392      0.133448362350464
C       1.836636304855347      1.241971731185913      0.395532935857773
C      -1.992919921875000      1.305574536323547     -0.281574815511703
H       1.421690464019775     -2.078616380691528      0.042189147323370
H       3.532999753952026     -1.473811507225037     -0.272206604480743
H       2.723510980606079      2.025411367416382      0.631112694740295
H       0.283274292945862      2.668108463287354     -0.102307051420212
H      -2.004974126815796      2.312333822250366     -0.192823171615601
H      -4.163249015808105      0.349959164857864      0.171751737594604
H      -3.417984247207642     -1.755757093429565     -0.043929107487202
H      -0.852229356765747     -2.534890890121460      0.252301812171936
O       3.480925798416138     -0.573951840400696     -0.259749889373779
