19
Energy: -609.625756377895 Ha
C       3.064663648605347      0.394727557897568     -0.068185068666935
C      -0.753121852874756      0.479245066642761      0.143200784921646
C      -1.814000964164734      1.367236018180847      0.078104861080647
C      -3.102158069610596      0.963523328304291      0.005136888939887
C      -3.370568037033081     -0.445583641529083     -0.176280304789543
C       0.695977032184601      0.996722757816315      0.074175283312798
C      -1.014821052551270     -0.899820923805237      0.008844536729157
C       1.335138916969299     -1.380274057388306      0.182115674018860
C       1.738910794258118     -0.058587573468685      0.194293394684792
C      -2.320782423019409     -1.351482272148132     -0.079992540180683
H       3.303747177124023      1.450167536735535     -0.221416637301445
H       1.993994235992432     -2.211042642593384      0.135379463434219
H      -2.480631351470947     -2.407239913940430     -0.197875097393990
H      -4.362135887145996     -0.923139333724976     -0.167379185557365
H      -3.902896165847778      1.702615141868591      0.023091521114111
H      -1.587926149368286      2.456768512725830      0.122694000601768
O       0.114657811820507     -1.779975771903992      0.023835863918066
O       3.923624277114868     -0.427720755338669     -0.171837002038956
O       0.996770679950714      2.149900674819946     -0.084870755672455
