20
Energy: -386.25639206012806 Ha
C       3.827078104019165     -0.751504540443420     -0.194496169686317
C      -0.595689773559570      1.319431662559509     -0.089602611958981
C      -3.740524053573608     -0.635003745555878      0.216820240020752
C      -2.860218763351440      0.253018677234650     -0.257201611995697
C      -1.467224597930908      0.218806236982346     -0.169908195734024
C       0.759372055530548      1.331986546516418      0.113871201872826
C       0.640264630317688     -1.004052519798279      0.040720067918301
C       1.402201771736145      0.196079015731812      0.136331081390381
C       2.780640840530396      0.200069397687912      0.228779926896095
C      -0.753865301609039     -0.928403139114380     -0.071120254695415
H      -1.184127449989319      2.461099386215210     -0.253157436847687
H       3.254344940185547     -1.403701543807983     -0.597217798233032
H       4.830580234527588     -0.655833423137665     -0.437853395938873
H       3.350980997085571      1.267586588859558      0.820220291614532
H       1.155624866485596     -1.702795028686523      0.209212332963943
H      -1.293089866638184     -1.984949469566345     -0.208699986338615
H      -3.427047252655029      0.756801426410675     -0.642299056053162
H      -4.721995353698730     -0.686833739280701      0.288075417280197
H      -3.381330013275146     -1.373035788536072      0.991903722286224
H       1.463848590850830      2.119096517562866      0.104653745889664
