21
Energy: -664.881148453957 Ha
C      -0.884393513202667      1.454043507575989     -0.036471478641033
C       1.207817196846008      0.527004122734070     -0.288733959197998
C       2.296845912933350      0.318148791790009     -1.131715655326843
C       3.278942584991455     -0.450907140970230     -0.579311251640320
C       3.189161777496338     -0.926559448242188      0.749014079570770
C       1.975149869918823     -0.730208337306976      1.418777108192444
C      -1.737033128738403      0.220918864011765     -0.267642438411713
C      -2.971588373184204     -0.003430981421843      0.354797840118408
C      -3.074147224426270     -1.414870977401733      0.281900316476822
C      -2.018813133239746     -1.849933743476868     -0.515982508659363
H      -1.776798486709595     -2.873601913452148     -0.955266654491425
H      -4.035405158996582     -2.007352113723755      0.387707561254501
H      -3.800746440887451      0.762598872184753      0.779806792736053
H       2.072153806686401      0.472794383764267     -2.222379922866821
H       3.938255310058594     -1.497596979141235      1.193981528282166
H       4.171281814575195     -0.512562692165375     -1.279782056808472
H       1.642112851142883     -1.255595564842224      2.380487442016602
N       1.054745912551880      0.098437905311584      0.890213906764984
O       0.269873410463333      1.413573503494263     -0.759486198425293
O      -1.283324718475342      2.336715936660767      0.770701766014099
O      -1.132264375686646     -0.830661594867706     -0.814195990562439
