21
Energy: -623.8245273356334 Ha
C      -1.787691354751587      3.029899597167969      0.201501935720444
C      -0.435830086469650      1.087267875671387     -0.075392141938210
C      -1.303349852561951     -0.843083322048187     -0.065809227526188
C       0.730292439460754     -0.838698625564575     -0.136185660958290
C       1.895545959472656     -1.706733465194702      0.005170015618205
C       3.264288187026978     -1.155522704124451      0.344850391149521
C       3.276632547378540      0.232230409979820      0.184517636895180
C       2.181615829467773      1.065769791603088     -0.474419683218002
C       0.894746482372284      0.561877310276031     -0.250313520431519
C      -2.616959095001221     -1.703103423118591      0.001228964305483
H       2.553316354751587      2.061399221420288     -1.026517748832703
H       4.348884105682373      0.758391559123993      0.525919377803802
H       4.201735973358154     -1.699638485908508      0.475154668092728
H      -2.381640195846558      2.277174949645996     -0.586144864559174
H      -2.124981641769409      2.897637605667114      1.221509099006653
H      -1.609881162643433      4.072464942932129     -0.001955311279744
H       1.641391873359680     -2.728088617324829     -0.072153322398663
N      -3.482689857482910     -2.462723731994629      0.018250709399581
N      -1.682632684707642      0.503148198127747      0.022181553766131
N      -0.358705550432205     -1.585394263267517     -0.016165636479855
O      -0.569547057151794      2.349503517150879      0.110428690910339
