21
Energy: -461.39443650451665 Ha
C       2.137883901596069     -0.264598459005356      0.019307225942612
C       1.967396855354309      1.079655289649963      0.106295272707939
C       0.654473364353180      1.668151497840881      0.075693309307098
C      -0.415248394012451      0.827455520629883     -0.088694348931313
C      -1.823717236518860      1.264990925788879     -0.187046751379967
C      -2.546146631240845     -0.012439149431884     -0.252076983451843
C      -2.512300729751587     -0.936289489269257      0.737777173519135
C      -1.668085217475891     -1.173757076263428     -0.310878843069077
C      -0.367195338010788     -0.528476595878601     -0.232915535569191
C       1.086736559867859     -1.041477918624878     -0.174779400229454
H      -1.650953173637390     -1.780234217643738     -1.067547798156738
H      -3.138893604278564     -1.421616911888123      0.738690495491028
H      -2.273987531661987     -0.696294069290161      2.076212167739868
H      -3.652525663375854     -0.039971347898245     -0.901297807693481
H       4.005228042602539     -0.235820621252060      0.023866567760706
H      -2.046666622161865      1.834278941154480     -0.922527790069580
H       0.605178475379944      2.646746873855591      0.492783010005951
H       3.115637779235840      1.962538123130798      0.057439379394054
H       1.265804052352905     -2.103573322296143     -0.190597712993622
H      -2.329976797103882      2.006162643432617      0.824708878993988
O       3.377296686172485     -0.933937907218933      0.089023001492023
