23
Energy: -462.68589713986825 Ha
C       1.596068739891052      0.681234300136566      0.106041766703129
C       2.498109102249146     -0.616391837596893      0.098710969090462
C       1.350259661674500     -1.706752419471741     -0.265395373106003
C      -0.019655834883451     -0.883696019649506     -0.399414747953415
C      -1.576288700103760     -1.027870416641235     -0.438412666320801
C      -1.761336922645569     -0.600133180618286      1.261205911636353
C      -1.080396652221680      0.816816210746765      0.884327352046967
C      -1.679270505905151      1.299368262290955     -0.406814157962799
C      -1.924734950065613      0.204096764326096     -1.209729313850403
C       0.239284768700600      0.206292182207108      0.499900430440903
H      -2.365859746932983     -0.003409355645999     -2.186335563659668
H      -1.868413448333740      2.222249269485474     -0.838804721832275
H      -0.736937582492828      1.625413179397583      1.721421003341675
H      -1.216807007789612     -1.105044960975647      1.879527807235718
H      -2.854197502136230     -0.338346511125565      1.661190271377563
H       2.957821369171143     -0.729756355285645      1.063841342926025
H      -0.010923294350505     -0.268178969621658     -1.382414579391479
H       1.029287815093994     -2.489211320877075      0.534368634223938
H       1.848459243774414     -1.996520876884460     -1.361098051071167
H       0.515103340148926     -0.152727559208870      1.591183185577393
H       3.650803565979004     -0.217112958431244     -0.627616763114929
H      -2.143229961395264     -1.918082833290100     -0.741410672664642
O       1.917832612991333      1.891618251800537     -0.262046664953232
