26
Energy: -647.5033612559922 Ha
C      -2.043991804122925     -1.846535205841064      0.886630952358246
C      -1.554128527641296     -1.435247063636780     -0.492869317531586
C      -1.733992099761963      0.975221693515778      0.079836308956146
C       0.416386514902115      2.177809000015259     -0.489643424749374
C       1.320304155349731      1.045153737068176     -0.085978835821152
C       1.254909038543701      0.492879420518875      1.129478216171265
C       2.034983634948730     -0.538733124732971      1.457124590873718
C       2.828864812850952     -1.185374021530151      0.610838115215302
C       2.896493673324585     -0.727714240550995     -0.707530200481415
C       2.173085451126099      0.405951052904129     -0.987896144390106
H       2.006824254989624      0.732973158359528     -2.059337377548218
H       3.587778568267822     -1.073474764823914     -1.410271525382996
H       3.421927690505981     -2.055744647979736      0.985816001892090
H       1.850166559219360     -1.085301756858826      2.461516857147217
H       0.512100040912628      0.942496180534363      1.788145661354065
H       0.514742255210876      2.285287380218506     -1.607886314392090
H      -3.048172950744629     -1.663951754570007      1.102310299873352
H      -1.322413325309753      2.871315717697144      0.368357211351395
H      -1.250171780586243      0.302922934293747     -1.797703504562378
H      -1.736908197402954     -2.889245033264160      0.984020113945007
H      -1.629314541816711     -1.271765232086182      1.642401218414307
H       0.914138674736023      3.079239845275879     -0.098214671015739
N      -1.441764235496521     -0.056224554777145     -0.862544655799866
N      -1.029393672943115      2.067515850067139     -0.135303154587746
O      -1.336717009544373     -2.231811523437500     -1.402097940444946
O      -2.673293113708496      0.927529096603394      0.930327892303467
