27
Energy: -668.5774732016262 Ha
C      -0.435520708560944      1.966618418693542      0.041174549609423
C       1.086277723312378      1.802694082260132     -0.043000280857086
C       1.539917230606079     -0.423852473497391      1.057917714118958
C       2.303029298782349     -1.157312989234924     -0.086874432861805
C      -1.159979104995728      0.594962775707245     -0.011536183767021
C      -1.354468464851379     -0.206097766757011     -1.108037948608398
C      -2.096696853637695     -1.400285720825195     -1.062230229377747
C      -2.589215755462646     -1.845307826995850      0.177021652460098
C      -2.397968292236328     -1.063114523887634      1.287505984306335
C      -1.679472804069519      0.151492282748222      1.170882463455200
H      -1.538473486900330      0.741795837879181      2.086139440536499
H      -2.814312696456909     -1.357688069343567      2.237941980361938
H      -3.174050569534302     -2.727727890014648      0.213979527354240
H      -2.172810554504395     -2.003069400787354     -2.010294675827026
H      -0.955334722995758      0.175495550036430     -2.031563520431519
H       0.667455613613129     -1.702014088630676     -1.024816989898682
H       1.419423103332520      2.847403764724731     -0.103274397552013
H       0.520068049430847     -0.824960112571716      1.017912745475769
H       1.343939304351807      1.416470408439636      1.932689785957336
H       1.338829994201660      1.307427644729614     -0.987626254558563
H      -0.726553261280060      2.493179798126221      0.922224462032318
H      -1.115963220596313      3.566852807998657     -1.006237030029297
H       1.981834053993225     -0.725938796997070      2.002429485321045
N       1.654217004776001      1.051498055458069      1.023913145065308
O       1.620980262756348     -1.731718540191650     -1.103377580642700
O      -0.831179499626160      2.686342716217041     -1.120428085327148
O       3.504076004028320     -1.090435624122620     -0.145423904061317
