27
Energy: -681.3404260554313 Ha
C       3.624978542327881     -2.427657365798950      0.837725043296814
C       3.153708457946777     -1.205374717712402     -0.237903103232384
C       2.459136724472046      0.117701739072800      0.267298549413681
C      -0.497911870479584      1.097972989082336     -0.258973687887192
C      -1.140460133552551     -0.185360133647919     -0.128733292222023
C      -2.356764316558838      0.288425534963608      0.442968815565109
C      -3.345593452453613     -0.571523308753967      0.732609808444977
C      -3.224661350250244     -1.983286380767822      0.209535539150238
C      -2.055846929550171     -2.390898227691650     -0.581489920616150
C      -0.954089283943176     -1.407691717147827     -0.898573458194733
H      -0.108306474983692     -1.713416814804077     -1.355100154876709
H      -1.997046470642090     -3.186381578445435     -1.317713022232056
H      -4.169481754302979     -2.695324659347534      0.461167782545090
H      -4.353435993194580     -0.044779799878597      1.144695162773132
H      -2.348609924316406      1.207512617111206      0.758253574371338
H       1.798351049423218     -0.104202345013618      1.277891993522644
H       2.280182361602783     -1.481836915016174     -1.086910724639893
H       4.258147716522217     -0.631273925304413     -0.550008296966553
H       2.930783748626709     -3.206803083419800      1.395344495773315
H       4.532359600067139     -3.146579027175903      0.560060322284698
H       4.002346992492676     -1.912802219390869      1.961689472198486
H       3.175252199172974      0.888617575168610      0.418145745992661
N      -1.078729867935181      2.223588943481445      0.303115934133530
N       0.752367436885834      1.327235102653503     -0.480142951011658
N       1.019443035125732      2.587843656539917     -0.152477338910103
N      -0.024187827482820      3.173223495483398      0.285331070423126
O       1.417778372764587      0.356272697448730     -0.708136141300201
