28
Energy: -594.3787001148236 Ha
C       1.045940637588501     -0.890924215316772     -0.265354692935944
C      -0.467630028724670      1.065266251564026     -0.690659403800964
C      -2.635195970535278     -0.155225664377213      0.059845894575119
C      -1.938555836677551     -0.780743002891541      1.245634317398071
C      -0.418901085853577     -0.127556279301643      1.468747854232788
C      -1.875276207923889      1.193382024765015     -0.123427420854568
C       1.471386194229126      1.413437366485596      0.754083812236786
C       2.848017692565918      0.466136097908020      0.209472820162773
C       2.462037801742554     -1.017921805381775      0.196182429790497
C       0.387751549482346      0.287441253662109      0.312536954879761
H      -1.826737880706787     -1.846645951271057      1.132136702537537
H      -1.991427183151245      1.620002388954163      1.169725656509399
H      -2.369220256805420      2.060776710510254     -0.730322062969208
H      -3.498447895050049      0.337277621030807      0.562439084053040
H      -2.604943513870239     -0.795649170875549     -0.880964756011963
H      -2.613917112350464     -0.671324133872986      2.334571838378906
H       0.131261587142944     -0.892917633056641      1.998027443885803
H       3.695053100585938      0.603291809558868      0.947670161724091
H       1.303950190544128      2.347919702529907      0.003237503580749
H       1.287655115127563      1.452046871185303      1.915228366851807
H       3.156095743179321      0.934022605419159     -0.732521116733551
H       2.884415149688721     -1.861781358718872     -0.415761768817902
H       2.649283409118652     -1.240843653678894      1.231936216354370
H      -0.828219890594482     -1.906297922134399     -2.182140350341797
H      -0.672928452491760      0.632943451404572      2.226313352584839
N       0.486957967281342     -1.818856477737427     -0.864965736865997
O      -0.865789830684662     -1.556819796562195     -1.153239130973816
O      -0.057713426649570      1.961747527122498     -1.537659883499146
