29
Energy: -682.8391808327289 Ha
C      -0.509404540061951      1.884007334709167      1.524363160133362
C      -1.603359103202820     -0.734261214733124      0.291233748197556
C      -1.357688188552856      0.251624494791031     -1.828157782554626
C       0.677617967128754     -0.237166643142700     -0.531492233276367
C       1.644994258880615     -1.198579192161560     -0.922375857830048
C      -2.754607915878296      0.785544097423553     -1.236227393150330
C       3.445647478103638      0.160038515925407     -0.084302417933941
C       2.564409971237183      1.105210900306702      0.368965804576874
C       1.157579779624939      0.926153182983398      0.055051758885384
C       2.999934196472168     -1.022473335266113     -0.742186307907104
H      -1.509140968322754     -0.384626895189285     -2.696509599685669
H      -0.479217678308487     -2.596651315689087      2.448737859725952
H      -0.150359287858009     -2.737702369689941      0.893143832683563
H      -3.539733648300171     -0.161861583590508      0.682537317276001
H      -2.497438669204712      1.782956480979919     -0.902036309242249
H      -3.608025074005127      0.835080027580261     -1.858064293861389
H      -0.700934588909149      1.085559606552124     -2.224138498306274
H       4.447253704071045      0.200770691037178      0.247406065464020
H       3.668906211853027     -1.826065301895142     -1.212064862251282
H       2.674592971801758      2.051053285598755      0.821856439113617
H      -0.100361116230488      1.153143763542175      2.285981893539429
H      -1.582354068756104      1.536978244781494      1.276024341583252
H      -0.544136226177216      2.903105258941650      2.021683692932129
H       1.290282845497131     -2.079356908798218     -1.504379391670227
N      -0.363650500774384     -2.027239322662354      1.590583324432373
N      -0.725292682647705     -0.531848251819611     -0.788749217987061
N      -2.827185392379761     -0.156902208924294     -0.056379374116659
N      -1.485889315605164     -1.373688817024231      1.375031352043152
O       0.356755971908569      1.918097257614136      0.438398003578186
