30
Energy: -649.9447249593337 Ha
C      -3.114923238754272      0.014442764222622     -0.039669409394264
C       0.882880330085754     -1.057709455490112     -0.932606399059296
C       1.959451675415039     -1.656900167465210      0.888256490230560
C       2.989120006561279      0.074176050722599     -0.575448989868164
C       2.814227819442749      1.503017067909241     -0.002833825536072
C       0.673080980777740     -2.182253360748291      0.800029039382935
C       0.332889497280121      1.547034978866577      0.687187135219574
C      -1.042877674102783      1.459016561508179     -0.023843554779887
C      -2.040925025939941      0.644058883190155      0.818139672279358
C       1.417350888252258      2.100096940994263     -0.238813966512680
H       3.079814910888672      1.585185050964355      1.077224254608154
H       0.768986821174622     -0.549408197402954     -1.882859468460083
H       0.127935439348221     -2.818679809570312      1.493836879730225
H       2.798916339874268     -1.822032928466797      1.590451359748840
H       4.002818107604980     -0.223829254508018     -0.250267535448074
H       2.989105701446533      0.164995774626732     -1.685109496116638
H       3.547418117523193      2.137371301651001     -0.506869196891785
H       1.418488502502441      3.215293884277344     -0.189720883965492
H      -0.881795287132263      1.013604283332825     -0.972955286502838
H       0.613552153110504      0.483832716941833      0.978950858116150
H       0.261196941137314      2.145956277847290      1.616451382637024
H      -1.441193938255310      2.447352170944214     -0.211031347513199
H      -1.423280239105225     -0.116077810525894      1.327024340629578
H      -2.525651693344116      1.336294651031494      1.543885588645935
H      -1.900873303413391     -1.403468489646912     -0.462043881416321
H       1.103545665740967      1.777599692344666     -1.294424057006836
N       2.042061328887939     -0.922274172306061     -0.220533639192581
N      -0.005772684235126     -1.813317418098450     -0.329260021448135
O      -2.804851531982422     -1.122870326042175     -0.666226565837860
O      -4.196980476379395      0.511028826236725     -0.159569025039673
