32
Energy: -501.91432734378344 Ha
C      -1.635298848152161     -1.213458061218262     -0.160005688667297
C      -0.761313378810883      0.916741073131561      1.257017135620117
C       1.253978490829468     -0.648177027702332      1.192412137985229
C       2.429407119750977     -1.195340037345886      0.344540715217590
C       3.389103174209595     -0.218495294451714     -0.370064198970795
C      -2.100238561630249      1.004834890365601      0.548355638980865
C       1.324154853820801      1.280618309974670     -0.342857629060745
C       0.316173672676086      0.248313739895821      0.409785836935043
C      -0.394390434026718     -0.526882350444794     -0.744170308113098
C       2.570585489273071      0.829436838626862     -1.099529147148132
H       4.207449436187744     -0.712585151195526     -0.904103517532349
H      -2.050973653793335      1.629468798637390     -0.394830167293549
H      -2.853253602981567      1.596147060394287      1.061235666275024
H      -0.979470431804657      0.403901875019073      2.255006551742554
H      -0.421112596988678      1.825155019760132      1.663151741027832
H       0.671074569225311     -1.457383275032043      1.724955797195435
H       1.731206536293030     -0.112246878445148      2.058583974838257
H       3.005155801773071     -1.927095055580139      0.957035124301910
H       1.963133573532104     -1.875275850296021     -0.453889042139053
H       3.858647346496582      0.232902944087982      0.591618835926056
H      -0.786648690700531      0.116504751145840     -1.544291138648987
H       3.188889741897583      1.759031772613525     -1.321435809135437
H       1.741836071014404      1.929361820220947      0.445393532514572
H       0.794448792934418      1.858780264854431     -1.117545127868652
H       0.279323041439056     -1.200822949409485     -1.257524132728577
H      -2.073217153549194     -1.829204916954041     -0.918945491313934
H      -1.597941398620605     -1.853809595108032      0.693809449672699
H      -4.244439125061035     -0.832840085029602     -0.996921718120575
H      -3.281321525573730      0.116598591208458     -1.811886429786682
H       2.145771503448486      0.310511976480484     -2.025768280029297
N      -3.541106939315796     -0.093480996787548     -0.892363190650940
N      -2.694825649261475     -0.312612444162369      0.189997866749763
