32
Energy: -447.8393863649861 Ha
C       2.813608407974243      1.321380496025085      0.227536946535110
C      -1.616256833076477      0.478808462619781     -0.008882177062333
C      -2.454985141754150     -0.601364910602570     -0.644684970378876
C      -3.680369615554810     -0.954107403755188      0.192698478698730
C       0.735789537429810     -1.962998032569885      0.248114332556725
C      -1.887924671173096      1.909961581230164     -0.240982875227928
C       1.286689281463623     -0.595741391181946      0.595744490623474
C       2.864001512527466     -0.770268857479095     -1.309631347656250
C       2.265476226806641     -0.046808712184429     -0.120678812265396
C       0.690208613872528      0.126426190137863      1.786759257316589
H       1.523246288299561     -2.736426591873169      0.283542841672897
H      -2.691801071166992      2.199316263198853     -0.912497460842133
H      -1.690318822860718      2.624059915542603      0.567123770713806
H      -1.238642573356628      0.221770703792572      0.980185210704803
H      -2.754712343215942     -0.253922194242477     -1.644348502159119
H      -1.838240146636963     -1.480822324752808     -0.793297708034515
H      -4.325991153717041     -0.078320041298866      0.333528757095337
H      -4.276731967926025     -1.743341803550720     -0.283140599727631
H      -3.392175912857056     -1.309502840042114      1.187725186347961
H       0.319848954677582     -1.985117197036743     -0.777889490127563
H       3.300799131393433     -1.742027640342712     -1.017796039581299
H       1.449021339416504      0.344749867916107      2.548472881317139
H      -0.099943354725838     -0.458532541990280      2.278020143508911
H       0.262538641691208      1.096226572990417      1.498167395591736
H       0.104092344641685      1.492005348205566     -0.437197744846344
H       2.098532915115356     -0.988122522830963     -2.077845811843872
H       3.656528234481812     -0.185602918267250     -1.791100382804871
H       2.023031949996948      2.097363471984863      0.194713577628136
H       3.612071275711060      1.620157718658447     -0.462738543748856
H       3.223050355911255      1.341428279876709      1.257073640823364
H      -0.069194979965687     -2.273586273193359      0.938253998756409
N      -0.756061732769012      1.252360343933105     -0.889273643493652
