33
Energy: -672.0835459306074 Ha
C       0.400851696729660      2.799968957901001      0.831152796745300
C      -2.869741678237915     -0.932288825511932      0.709119021892548
C      -0.984638273715973     -0.874659359455109     -0.429756790399551
C       0.195209249854088     -0.427120953798294      0.507819890975952
C       1.045292735099792     -1.565045118331909      1.037954092025757
C      -3.077222824096680      0.108367398381233     -0.494678586721420
C       2.876099586486816     -0.939752280712128     -0.509943366050720
C       1.903583884239197      0.023976847529411     -1.181747198104858
C       1.448053240776062      1.596848249435425      0.627944707870483
C       2.139626979827881     -2.094344139099121      0.110455580055714
H       0.370194762945175     -2.351434707641602      1.379142284393311
H      -3.709961891174316     -0.558916807174683     -1.157147526741028
H      -3.663975477218628      1.021389722824097     -0.135451078414917
H      -2.689578533172607     -0.707534611225128      1.868499755859375
H      -3.741441726684570     -1.560360193252563      0.702790617942810
H      -0.593541800975800     -1.404427528381348     -1.378816127777100
H      -0.158211708068848      0.281876951456070      1.361850857734680
H       1.471062302589417     -1.256368398666382      2.094080209732056
H       1.839692831039429     -2.674346446990967     -0.822548389434814
H       1.457351684570312     -0.360823035240173     -2.098595619201660
H       3.450621128082275     -0.385422557592392      0.253807842731476
H       3.712764978408813     -1.232323527336121     -1.218056797981262
H       2.352579355239868      0.942002713680267     -1.517142057418823
H       2.285856246948242      2.079835653305054      0.121769279241562
H       1.925885438919067      1.129516959190369      1.451751112937927
H       0.949326872825623      3.900396585464478      0.875048398971558
H      -0.368782788515091      2.645032167434692      1.709427356719971
H      -0.902214050292969      2.025779485702515     -0.619169533252716
H       2.792896270751953     -2.625399112701416      0.767356514930725
N       0.925558805465698      0.523397862911224     -0.211340576410294
O      -1.848427891731262     -1.816461920738220      0.091372780501842
O      -0.352577507495880      2.926608085632324     -0.339065790176392
O      -1.764259934425354      0.296358376741409     -0.928448736667633
