34
Energy: -963.7821308967298 Ha
C       1.100111246109009     -0.127850636839867      0.451086938381195
C      -3.956138610839844     -0.984473228454590     -0.536802709102631
C      -2.005117416381836      1.824492692947388     -0.144354134798050
C      -1.792499661445618      0.349552899599075     -0.561315894126892
C       4.900334835052490      0.701290190219879     -1.038788795471191
C      -2.924226284027100     -0.324591517448425     -1.395682811737061
C       3.452612638473511     -0.446107178926468     -0.010191367939115
C       2.381741046905518     -0.791077911853790      0.941650331020355
C      -0.100405134260654     -0.736371159553528      1.092730402946472
C       4.290611267089844     -1.381502032279968     -0.530390620231628
H      -0.954580962657928      0.499279797077179     -1.220106601715088
H      -0.240145519375801      2.040315866470337      0.598053634166718
H      -4.510628700256348     -2.388910293579102     -1.921128749847412
H      -5.653632164001465     -2.120291233062744     -0.580688416957855
H      -2.537311315536499     -1.157715201377869     -1.884133219718933
H      -3.420130491256714      0.444186538457870     -1.989787220954895
H      -2.086340427398682     -0.450826108455658      1.357800602912903
H       5.530851840972900      1.467054724693298     -1.466114640235901
H       4.256146430969238     -2.498739957809448     -0.484350502490997
H       2.324485301971436     -1.918154358863831      1.001191496849060
H       2.551408767700195     -0.405604302883148      1.967986345291138
H       1.123878836631775      0.006046699825674     -0.661787807941437
H       1.225343704223633      1.261990427970886      1.907562017440796
H       1.860736966133118      1.800650000572205      0.554840683937073
H       5.995123863220215     -1.077606439590454     -1.712206244468689
N       1.068821787834167      1.265034794807434      0.885516107082367
N       3.802795410156250      0.850223958492279     -0.380106300115585
N       5.313647747039795     -0.610812604427338     -1.094164490699768
N      -1.346622824668884     -0.464608520269394      0.647595643997192
N      -4.751235961914062     -1.946520090103149     -1.107095360755920
O      -4.267075061798096     -0.573412358760834      0.601549327373505
O       0.118072547018528     -1.452812075614929      2.103598594665527
O      -3.100868225097656      2.367846488952637     -0.301792412996292
O      -1.020028591156006      2.451493978500366      0.379519551992416
