35
Energy: -727.4396061443864 Ha
C      -2.223336696624756     -0.517792999744415     -0.875867366790771
C       1.413673281669617      1.474893331527710      1.538792729377747
C       1.574765682220459      1.357280492782593     -0.047319136559963
C       2.191004514694214     -1.130515456199646      0.471272528171539
C       1.582002282142639     -0.106176018714905     -0.478387773036957
C       2.976553201675415      2.023472547531128     -0.662619292736053
C      -1.888144135475159      0.248825430870056      1.514871001243591
C      -2.760792732238770      0.561316192150116      0.325138479471207
C      -0.826745033264160     -0.008559912443161     -1.271448969841003
C      -4.179516792297363      0.712255716323853      0.784621000289917
H       1.925922751426697     -0.176817834377289     -1.500363826751709
H       3.747615098953247     -2.366444587707520      0.339490026235580
H       3.431452035903931      1.701866626739502     -1.624420523643494
H       2.583961725234985      3.048190116882324     -1.042110681533813
H       3.697623014450073      1.894921898841858      0.053559176623821
H       1.506195306777954      2.560040712356567      1.831412315368652
H       2.242740154266357      1.116958856582642      2.144731521606445
H       0.490440785884857      1.156946182250977      1.730870604515076
H       0.704184472560883      1.786645770072937     -0.620321452617645
H      -0.218676030635834     -1.377171039581299     -0.123488940298557
H      -5.050030708312988      0.967281281948090      0.085387818515301
H      -4.473333835601807     -0.058564174920321      1.454288363456726
H      -1.743850827217102      1.177911996841431      2.094820737838745
H      -1.138077020645142     -0.269725471735001      1.143646359443665
H      -2.396972179412842     -0.359364360570908      2.217115879058838
H      -2.498783588409424      1.541669487953186     -0.148977324366570
H      -2.687810182571411     -0.351102948188782     -1.827929377555847
H      -3.124735116958618     -2.320914506912231     -0.156574264168739
H      -1.902229905128479     -2.527574300765991     -1.231432795524597
H      -4.051547050476074      1.549820899963379      1.489835381507874
N      -2.231976032257080     -1.966687679290771     -0.490077555179596
N       0.198579788208008     -0.756291210651398     -0.826659500598907
O       1.926941275596619     -1.525905847549438      1.576939582824707
O      -0.718958973884583      0.909957885742188     -2.038644075393677
O       3.296130418777466     -1.549516797065735     -0.149132907390594
