35
Energy: -767.959696992597 Ha
C      -1.051570653915405      2.583764553070068     -0.253879427909851
C       2.352068185806274      1.927638649940491      0.566510081291199
C       1.991592407226562      0.099222272634506     -0.841478824615479
C       2.127914428710938     -1.527103066444397     -1.118860125541687
C       0.973842382431030     -2.297114849090576      0.812125384807587
C       0.824912369251251      2.286746978759766      0.762736439704895
C      -2.530103206634521     -1.337202429771423      0.470719128847122
C      -3.157894611358643     -0.304907560348511     -0.315032750368118
C      -1.398685574531555      1.024428963661194      0.059551827609539
C      -0.411503314971924     -2.763687849044800      0.230529546737671
H       1.067503929138184     -1.226750969886780      1.207978606224060
H       0.073265925049782      1.221000194549561      1.119105339050293
H       0.661760210990906      3.020617961883545      1.989324808120728
H       2.987826347351074      2.030339002609253      1.433042883872986
H       3.108209133148193      2.688847064971924     -0.148844316601753
H       0.802352905273438      0.109512925148010     -0.832275271415710
H       2.127297163009644      0.907886147499084     -1.737222909927368
H       3.169943571090698     -1.448533058166504     -1.408459901809692
H       1.299120545387268     -1.746193647384644     -1.823952436447144
H       1.310977578163147     -2.677803993225098      1.702685356140137
H      -2.540092706680298     -1.012006402015686      1.754564046859741
H      -1.172243952751160     -3.424705743789673      0.901348292827606
H      -3.274763107299805     -2.230387449264526      0.133250191807747
H      -2.654567241668701     -0.745938420295715     -1.373663783073425
H      -4.302413463592529     -0.371756851673126     -0.397155761718750
H      -0.564416885375977      0.189664542675018     -0.692849040031433
H      -1.060170531272888      0.550505936145782      1.192293047904968
H      -1.837650656700134      2.647591114044189     -1.195672631263733
H      -1.483859896659851      3.253758430480957      0.642674326896667
H      -0.297397792339325     -3.441142082214355     -0.704203665256500
O       2.358468532562256      0.453180104494095      0.432796657085419
O      -2.911765813827515      1.010118246078491     -0.102667428553104
O      -1.261383533477783     -1.617704272270203     -0.203603655099869
O       2.065306186676025     -2.273119926452637     -0.018223101273179
O       0.281360298395157      2.871873855590820     -0.608239352703094
