36
Energy: -856.7834990276559 Ha
C      -1.702018380165100     -1.087526559829712      0.754737138748169
C       1.393931627273560      0.925510108470917     -0.938416361808777
C       3.178759574890137     -0.765950858592987     -0.173681601881981
C       1.708627581596375     -0.502028405666351     -0.611831545829773
C      -2.782019853591919      0.365689128637314     -1.663746237754822
C       1.354991793632507      1.918911218643188      0.106856808066368
C      -3.080221652984619      0.757617652416229     -0.276442885398865
C      -2.032911777496338      0.375369578599930      0.723381817340851
C      -0.537924230098724     -1.441750764846802     -0.162268340587616
C      -4.507279396057129      0.231731176376343      0.093408875167370
H      -2.658208131790161     -0.740447700023651     -1.857698559761047
H       3.018039464950562      0.597711026668549      1.105130076408386
H      -0.024455003440380      2.834463834762573     -0.908658862113953
H       0.291822344064713      3.548529863357544      0.680330812931061
H       0.374106317758560      0.618533551692963     -1.418196558952332
H       2.038751840591431      1.480511903762817     -1.707664966583252
H       1.553759336471558     -1.026384472846985     -1.527211785316467
H       0.830645442008972     -0.974775552749634      1.262593984603882
H      -1.830979704856873      0.727866828441620     -1.930415391921997
H      -5.194700241088867      0.645361542701721     -0.650103807449341
H      -4.844994544982910      0.662941396236420      1.012825012207031
H      -4.600697517395020     -0.861332833766937      0.188432246446609
H      -3.019787073135376      1.882501840591431     -0.186075612902641
H      -1.091385722160339      0.803320586681366      0.677330434322357
H      -2.442573308944702      0.682719767093658      1.682433366775513
H      -2.510275125503540     -1.704665422439575      0.297315418720245
H      -2.113365173339844     -0.921224236488342      2.708152532577515
H      -1.701661586761475     -2.472997903823853      2.136397361755371
H      -3.621787071228027      0.633839905261993     -2.311491727828979
N      -1.510520339012146     -1.445510506629944      2.054210186004639
N       0.702340483665466     -1.081037402153015      0.280771076679230
N       0.530237793922424      2.954459428787231     -0.068197451531887
O       2.161886930465698      1.850352883338928      1.009523272514343
O      -0.682476639747620     -1.859508037567139     -1.318493127822876
O       3.806173563003540     -1.535460352897644     -0.827407240867615
O       3.655632019042969     -0.215045526623726      0.857265055179596
