36
Energy: -748.1329617711847 Ha
C       2.204207658767700     -0.206322699785233     -0.462513417005539
C       0.456333070993423     -2.427871942520142     -0.635446071624756
C      -1.522345900535583     -2.010630369186401      0.819674313068390
C      -2.255163908004761     -0.675298035144806      1.286866068840027
C      -2.948211908340454      0.501227974891663     -0.824456989765167
C       1.690596222877502     -2.336342334747314     -0.031321786344051
C       0.131002902984619      2.734493255615234     -0.212634444236755
C       1.767353057861328      2.597220182418823      0.162319764494896
C       1.769870758056641      0.282905012369156      0.942736625671387
C      -1.693591713905334      1.651980876922607     -0.553592979907990
H      -3.017778158187866     -1.141592144966125      2.056333541870117
H       3.827761173248291     -1.977303624153137     -0.510746955871582
H       1.898597359657288     -3.401049613952637     -0.011154863983393
H       1.533633828163147     -1.877310156822205      1.081004500389099
H       0.050496328622103     -3.372032403945923     -0.471066772937775
H       0.765551984310150     -2.625747680664062     -1.778071880340576
H      -0.745658993721008     -2.236599206924438      1.648376703262329
H      -2.025944709777832     -2.907646656036377      0.516787767410278
H      -1.559577584266663      0.034184876829386      1.633182406425476
H      -2.818967819213867     -0.113079175353050     -2.071847438812256
H      -0.428943395614624      3.506898641586304     -0.942258000373840
H      -2.072766542434692      2.048659324645996      0.432406902313232
H      -2.066856622695923      2.559722900390625     -1.197199940681458
H      -0.323090761899948      3.089268445968628      0.868163585662842
H       2.147080659866333      2.370879650115967     -0.929637908935547
H       2.268178701400757      3.485530853271484      0.003729456802830
H       2.676770210266113     -0.302550613880157      1.597392082214355
H       0.790512204170227      0.084107317030430      1.204189777374268
H       1.326698064804077     -0.449027538299561     -1.174029946327209
H       2.690837383270264      0.718115150928497     -0.980589091777802
H      -4.040356636047363      1.331277132034302     -0.946129202842712
N       2.774121761322021     -1.551831960678101     -0.662379324436188
O      -3.296363115310669     -0.119276247918606      0.357438802719116
O       2.179145812988281      1.659966826438904      1.167733311653137
O      -0.273727744817734      1.620410084724426     -0.735202729701996
O      -0.845970988273621     -1.739857316017151     -0.582715153694153
