37
Energy: -931.9329913380901 Ha
C      -1.988267421722412     -0.407510906457901      0.745239913463593
C       3.624517679214478     -1.503255248069763      0.619468212127686
C       2.729004621505737     -0.537528455257416     -0.168017864227295
C       1.672096848487854     -0.069898843765259      0.814393043518066
C       1.388515353202820      2.235333681106567     -0.017562564462423
C       4.869082450866699     -2.004323720932007     -0.143479406833649
C      -4.456633090972900     -0.578058719635010     -0.042247015982866
C      -3.193885564804077     -1.295896053314209      0.546480417251587
C      -1.173360824584961     -0.372283995151520     -0.528701424598694
C       0.666708171367645      0.929825484752655      0.268214374780655
H       2.270039319992065     -1.108336210250854     -1.014398455619812
H      -0.195088118314743      2.799981355667114     -1.143298029899597
H       5.725141525268555     -0.688599228858948     -1.407481431961060
H       6.691749572753906     -0.880795180797577     -0.036090657114983
H       5.283456802368164     -2.794672727584839      0.557482302188873
H       4.736366271972656     -2.482522010803223     -1.146956562995911
H       3.917813777923584     -0.926214575767517      1.555848121643066
H       3.116740465164185     -2.431784391403198      0.898895144462585
H       3.213656187057495      0.221344202756882     -0.689638435840607
H       1.026026010513306     -0.971523106098175      1.142449975013733
H      -2.575243949890137      0.893810868263245      2.185868740081787
H       0.082997873425484      1.258791208267212      1.165418863296509
H       0.365995824337006      0.136463150382042     -1.627652645111084
H      -6.118707656860352     -1.121082186698914     -0.356108665466309
H      -3.497665166854858     -1.691902637481689      1.489166498184204
H      -2.967682838439941     -2.098955392837524     -0.187694296240807
H      -1.520411729812622     -0.933693885803223      1.577679753303528
H      -2.791677951812744      1.501693844795227      0.598408102989197
H       2.039707899093628      0.403984934091568      1.799397826194763
N      -2.222179412841797      0.906387686729431      1.243086218833923
N      -0.089098691940308      0.427114784717560     -0.761920571327209
N       5.776909351348877     -0.956226050853729     -0.393109023571014
O      -5.314177036285400     -1.414536237716675      0.000993821653537
O       2.309890985488892      2.619619369506836      0.657434344291687
O      -1.561554431915283     -1.107986927032471     -1.479671597480774
O      -4.590684890747070      0.528243958950043     -0.596110463142395
O       0.670362174510956      3.111491918563843     -0.900198340415955
