37
Energy: -931.9534021902191 Ha
C      -1.761172413825989     -1.511304259300232      1.056975603103638
C       1.479437112808228      3.023286819458008     -0.663486123085022
C       1.351668238639832      1.650719404220581     -1.373987674713135
C       2.363801002502441      0.658007800579071     -0.898087203502655
C       2.748989820480347     -1.762272238731384      0.098470836877823
C       0.401037037372589      3.154964685440063      0.432860255241394
C      -2.998299837112427     -0.020328426733613     -0.608567357063293
C      -3.032667636871338     -1.349442005157471      0.142516270279884
C      -0.521474659442902     -1.563550114631653      0.263304084539413
C       1.659505963325500     -0.694093465805054     -0.389771252870560
H       1.536734104156494      1.769691348075867     -2.416245698928833
H       2.937596797943115     -3.611210107803345      0.333707004785538
H       1.199796676635742      4.997734069824219      0.959976255893707
H       0.508685886859894      4.133399009704590      2.280160665512085
H       0.396157681941986      2.241836786270142      1.239080071449280
H      -0.535633087158203      3.011888742446899     -0.107875861227512
H       1.385165095329285      3.784842014312744     -1.422114133834839
H       2.512866258621216      3.086744308471680     -0.328716039657593
H       0.342677742242813      1.192049860954285     -1.224846720695496
H       3.016497135162354      0.921981453895569     -0.023233288899064
H      -2.026601314544678     -0.849607765674591      2.938062191009521
H       1.278830766677856     -1.219586849212646     -1.274401187896729
H       0.271405130624771      0.146266907453537      1.189602732658386
H      -3.801730632781982      1.003831863403320     -1.825482487678528
H      -3.083008289337158     -2.267943859100342     -0.525640547275543
H      -4.002112388610840     -1.347549915313721      0.652351498603821
H      -1.882586121559143     -2.427945375442505      1.560116648674011
H      -2.249332904815674      0.301513016223907      1.764611959457397
H       3.051935911178589      0.332707494497299     -1.848959326744080
N      -1.738146901130676     -0.523109555244446      2.072534561157227
N       0.514668524265289     -0.651048779487610      0.501614272594452
N       0.400497019290924      4.432670116424561      1.255993008613586
O      -3.941708803176880      0.086664058268070     -1.515818953514099
O       3.866578340530396     -1.564818859100342      0.564638912677765
O      -0.544341683387756     -2.333798408508301     -0.765758275985718
O      -2.312135219573975      0.899200379848480     -0.288015395402908
O       2.276429653167725     -3.028016567230225     -0.131610229611397
