38
Energy: -912.1511584022123 Ha
C      -1.885372877120972      1.909449338912964     -0.173673555254936
C       2.447759389877319      0.745256364345551     -0.355835109949112
C       1.255970358848572     -1.087504386901855      1.020837187767029
C       1.293116927146912     -0.240932270884514     -0.269764661788940
C      -3.034977674484253     -2.003768205642700     -0.621576309204102
C       3.796085596084595     -0.006005825474858     -0.644846320152283
C      -3.025494813919067     -0.132815957069397      1.145042657852173
C      -2.905372619628906      1.421276926994324      0.917839944362640
C      -0.429911613464355      1.436676502227783      0.221493422985077
C      -3.845911741256714     -0.944954752922058      0.108932726085186
H      -2.559819698333740     -1.534422159194946     -2.559806823730469
H       2.227296590805054     -1.620874404907227      2.506900310516357
H       4.810115814208984      1.610421419143677      0.109665729105473
H       5.736027240753174      0.371800631284714     -0.641748428344727
H       2.288379907608032      1.391998291015625     -1.231592297554016
H       2.454588413238525      1.397122025489807      0.529666960239410
H       1.476878523826599     -0.973451197147369     -1.076151132583618
H      -0.681959331035614     -0.111252948641777     -1.011294364929199
H      -1.301760315895081     -2.113146066665649     -1.758359551429749
H      -3.756947040557861     -2.710253953933716     -1.049593091011047
H      -4.319649219512939     -0.251215219497681     -0.597920238971710
H      -2.326915025711060      0.522451400756836     -1.585661888122559
H      -4.663998126983643     -1.507182359695435      0.584897398948669
H      -2.006263732910156     -0.532213747501373      1.118401527404785
H      -3.392857551574707     -0.352143198251724      2.182312011718750
H      -2.652917146682739      1.837806105613708      1.898846030235291
H      -3.880977630615234      1.869786620140076      0.665488898754120
H      -1.900530815124512      3.006067037582397     -0.086338616907597
H      -3.239239454269409      1.900013685226440     -1.718999743461609
H      -2.466134548187256     -2.601212739944458      0.100373104214668
N      -2.310672998428345      1.546298503875732     -1.488247752189636
N      -2.099874496459961     -1.495765209197998     -1.653168916702271
N       0.038976028561592      0.432430714368820     -0.528637468814850
N       4.859987735748291      0.843623936176300     -0.546549320220947
O       0.355648666620255     -1.787338137626648      1.346770286560059
O       3.904839277267456     -1.158596277236938     -1.032056450843811
O       0.212091892957687      2.029680252075195      1.058853268623352
O       2.370223045349121     -1.017030954360962      1.757237672805786
