39
Energy: -1041.2989099076492 Ha
C      -1.948122978210449     -1.599600315093994      1.239640712738037
C       2.527729034423828      1.309643268585205     -0.427860558032990
C       1.459091901779175      0.927285313606262     -1.487426042556763
C       0.122647427022457      1.680491924285889     -1.397030830383301
C      -1.424907803535461      3.153056859970093     -0.098328232765198
C       3.840132951736450     -0.529724419116974      0.563532710075378
C      -1.199843168258667     -2.797803878784180     -1.031368613243103
C      -2.303910970687866     -2.139379501342773     -0.164487287402153
C      -1.117299318313599     -0.334765911102295      0.899609148502350
C      -0.749327123165131      1.696174263954163     -0.124071106314659
H       1.806872487068176      1.219428658485413     -2.466633081436157
H      -3.141926765441895      3.768063545227051     -0.145703673362732
H       1.819887280464172     -1.364314794540405      1.114888668060303
H       3.107563495635986     -1.473337411880493      2.199009180068970
H       5.107036590576172     -1.170866727828979      1.599735021591187
H       4.018714427947998      0.138481691479683     -1.371477127075195
H       2.069745302200317      1.405830860137939      0.563317120075226
H       3.112623929977417      2.195480108261108     -0.723504304885864
H       1.187847018241882     -0.112264014780521     -1.559540033340454
H       0.463972330093384      2.680721044540405     -1.622073173522949
H      -0.553010284900665      1.224149823188782     -2.136058092117310
H      -0.275015503168106      1.921807169914246      0.877963125705719
H      -2.708978652954102      0.834775507450104      0.264597564935684
H      -0.931119680404663     -3.800363063812256     -2.474375963211060
H      -3.237028360366821     -2.719774723052979     -0.234747111797333
H      -2.710733175277710     -1.270226001739502     -0.813721060752869
H      -1.384461283683777     -2.329420328140259      1.840488195419312
H      -3.587146520614624     -1.919495463371277      2.369761705398560
H      -2.747161865234375     -0.613012850284576      3.023057222366333
N       2.822698116302490     -1.147711277008057      1.259458065032959
N       5.166702270507812     -0.506508290767670      0.864624321460724
N      -3.090988874435425     -1.122314691543579      2.054107904434204
N      -1.663015246391296      0.700741350650787      0.268476277589798
N       3.443479299545288      0.096347697079182     -0.522572100162506
O      -0.903527021408081      4.212604522705078     -0.161666855216026
O       0.097478412091732     -0.295099079608917      1.358703970909119
O      -0.121017418801785     -2.360461235046387     -1.174216985702515
O      -1.733229279518127     -3.626119136810303     -1.938963532447815
O      -2.765573501586914      2.950098276138306     -0.034719660878181
