39
Energy: -1041.4285968247455 Ha
C      -1.371551275253296     -1.707794189453125      1.196580886840820
C       1.509553313255310      2.172479152679443      0.041154138743877
C       2.347966909408569      1.642945528030396     -1.122568726539612
C       1.970582604408264      0.274569809436798     -1.683297157287598
C       2.864012479782104     -0.932452857494354      0.294636428356171
C      -0.863940775394440      2.843818902969360      0.362003058195114
C      -2.903330564498901     -1.061595916748047     -0.843082547187805
C      -2.664930343627930     -2.037690639495850      0.344339579343796
C      -0.103481903672218     -1.956598043441772      0.367222875356674
C       1.728491902351379     -0.887090981006622     -0.722548127174377
H       3.404523372650146      1.615665912628174     -0.795384585857391
H       4.662474632263184     -1.348837733268738      0.498095959424973
H      -2.279414653778076      2.557459831237793     -1.115921974182129
H      -2.821515321731567      3.298237323760986      0.290680378675461
H      -1.227327585220337      3.618606090545654      2.123862266540527
H       0.039515212178230      2.495252132415771     -1.351069688796997
H       1.658403992652893      1.631785631179810      0.959934949874878
H       1.831345915794373      3.194840192794800      0.202213197946548
H       2.339214324951172      2.342296361923218     -1.938088774681091
H       1.007572412490845      0.340348124504089     -2.304990530014038
H       2.771863698959351     -0.072161912918091     -2.400264739990234
H       1.767415165901184     -1.807113647460938     -1.295938253402710
H       0.125010773539543      0.042195402085781      0.326884925365448
H      -2.192893981933594      0.343640774488449      0.187614381313324
H      -2.620712757110596     -3.070764064788818     -0.058689199388027
H      -3.559126377105713     -2.060049772262573      0.988029003143311
H      -1.318475842475891     -2.477968454360962      1.951616406440735
H      -0.711369156837463     -0.301420807838440      2.479596376419067
H      -2.358844757080078     -0.310230523347855      2.130327463150024
N      -2.029077529907227      3.046214103698730     -0.295147955417633
N      -0.506512880325317      3.155653238296509      1.556696534156799
N      -1.434360861778259     -0.359722286462784      1.795822858810425
N       0.478534460067749     -0.841307580471039     -0.077022530138493
N       0.123389877378941      2.172527551651001     -0.378001093864441
O       2.730041027069092     -0.705817341804504      1.489365220069885
O       0.381356269121170     -3.074886560440063      0.220743939280510
O      -3.405889987945557     -1.486701846122742     -1.879765152931213
O      -2.754376411437988      0.233803376555443     -0.610808610916138
O       4.046155929565430     -1.260007858276367     -0.282233685255051
