41
Energy: -968.2524396593585 Ha
C       1.516537904739380     -0.030973404645920      1.002044916152954
C      -3.905513525009155     -1.755793452262878      0.839715182781219
C      -2.317752122879028     -1.017451167106628     -0.263350963592529
C      -1.539874434471130     -0.105564028024673     -1.147929310798645
C      -1.618205547332764      2.276552915573120     -0.919237554073334
C      -0.769549310207367      1.130761265754700     -0.553883612155914
C      -2.452293395996094     -2.336691856384277     -0.645269274711609
C       4.242849826812744     -1.122410178184509      0.301364064216614
C       3.914008140563965      0.218159288167953      0.907962501049042
C       2.674586296081543      0.927330911159515      0.703137278556824
C       0.283952623605728      0.630071341991425      1.619269251823425
C       4.446297645568848     -0.964924335479736     -1.328378677368164
H       3.115998506546021     -1.751528620719910     -2.771927595138550
H      -1.748850703239441      4.134801864624023     -0.807903826236725
H      -3.855169057846069     -3.705031871795654      0.076866790652275
H      -4.743991374969482     -1.953321337699890      1.494337320327759
H      -1.997137308120728     -2.978493928909302     -1.283761143684387
H      -0.729848206043243     -0.676598787307739     -1.710691332817078
H      -2.160271883010864      0.336679875850677     -1.974594116210938
H       0.194792643189430      1.201966166496277     -0.936738550662994
H      -1.529220581054688      1.266588330268860      1.466164469718933
H       2.806327104568481     -0.235752388834953     -2.463128328323364
H       5.241551876068115     -1.573072552680969      0.601202785968781
H       4.671592235565186      0.075310654938221     -1.348433017730713
H       1.632673621177673     -1.419090986251831     -0.465380162000656
H       5.123332977294922     -1.567069888114929     -1.866644024848938
H       1.841709375381470     -0.431689351797104      1.940526366233826
H       2.639397859573364      1.840682148933411      1.270629644393921
H       0.402199536561966     -1.702594637870789      0.436016738414764
H       3.844286203384399      0.272096842527390      1.940649271011353
H       4.744004726409912      0.943721473217010      0.640778660774231
H       3.513151884078979     -1.932689905166626      0.541260540485382
H       2.563627958297729      1.255811452865601     -0.323699444532394
N       0.971517801284790     -1.033402323722839      0.058877643197775
N       3.124632120132446     -1.111656069755554     -1.997286677360535
N      -0.736456930637360      1.147964477539062      0.849728226661682
N      -3.298308849334717     -0.655914843082428      0.610348582267761
N      -3.518926143646240     -2.765194892883301      0.057912357151508
O      -2.678243875503540      2.329449176788330     -1.511382341384888
O       0.178928911685944      0.781294763088226      2.812690496444702
O      -1.027888417243958      3.443293333053589     -0.626964926719666
