41
Energy: -951.3681994962963 Ha
C      -2.011209487915039      0.733951747417450     -1.216856241226196
C       1.743632078170776     -1.000491261482239     -0.466572791337967
C       1.786824941635132     -0.290053337812424      0.933381199836731
C       1.783581733703613      2.257238149642944      0.696845531463623
C       0.995099067687988      1.015563845634460      1.140511512756348
C       2.625708580017090     -2.253988742828369     -0.435471504926682
C      -3.531457185745239     -1.110704064369202      0.858304977416992
C      -3.354316711425781     -1.382555603981018     -0.667038321495056
C      -2.059236049652100     -0.830895245075226     -1.257704377174377
C      -0.530776262283325      1.215083837509155     -0.780810713768005
C      -2.269001483917236     -1.555846214294434      1.824170470237732
H      -2.486234188079834      0.173315331339836      2.959492683410645
H       1.837193369865417      3.990629673004150      0.427484214305878
H       3.613547086715698     -3.564181327819824     -1.646518111228943
H       2.942593336105347     -2.216053009033203     -2.549986362457275
H       2.140531778335571     -0.278024256229401     -1.167408823966980
H       0.730881452560425     -1.329554796218872     -0.700348734855652
H       2.864250183105469     -0.133017897605896      1.136215686798096
H       1.476666688919067     -1.155652403831482      1.594406008720398
H       0.818211436271667      1.221222162246704      2.214944362640381
H      -1.036119103431702      0.556912243366241      1.140308260917664
H      -0.988242506980896     -0.571475267410278      3.221404075622559
H      -1.522861242294312     -2.199118852615356      1.376014709472656
H      -3.306622266769409      1.196455478668213     -2.671752452850342
H      -4.480381011962891     -1.583374500274658      1.195006370544434
H      -3.637660980224609     -0.042020272463560      1.069916486740112
H      -4.189780235290527     -0.984885513782501     -1.336242437362671
H      -3.232590675354004     -2.492769002914429     -0.796203374862671
H      -1.993321657180786     -1.026777863502502     -2.314185857772827
H      -1.182253360748291     -1.305788755416870     -0.722914457321167
H      -2.618573665618896      1.035143852233887     -0.300883293151855
H      -2.717369079589844     -2.219319343566895      2.645983219146729
H      -1.822373509407043      1.275004982948303     -3.098854780197144
N      -2.436263322830200      1.515103101730347     -2.337739944458008
N      -1.737067341804504     -0.429996728897095      2.556479930877686
N      -0.315994888544083      1.097059369087219      0.553483307361603
N       3.185954332351685     -2.671968460083008     -1.670776367187500
O       2.960672616958618      2.262803554534912      0.342779636383057
O       2.720866680145264     -2.961359739303589      0.590366482734680
O       0.319874972105026      1.593244671821594     -1.594939827919006
O       1.103712201118469      3.392577648162842      0.766973078250885
