42
Energy: -931.4554985931179 Ha
C       2.483043909072876     -1.195351362228394     -0.225526019930840
C      -2.671367406845093      0.973403871059418     -0.694753468036652
C      -1.822980165481567      1.994699835777283     -0.114392086863518
C      -0.571377575397491      1.782633543014526      0.746355414390564
C       1.566041946411133      2.383248090744019     -0.591850101947784
C      -4.327651500701904     -0.684592127799988      0.184265598654747
C       0.094699695706367     -2.010869741439819      0.510908544063568
C       1.331374883651733     -2.935323476791382     -1.494924306869507
C       1.456594228744507     -2.353888988494873     -0.161299794912338
C       2.385548830032349     -0.370113462209702      1.039564728736877
C       0.730196237564087      1.239609479904175      0.024615228176117
H      -0.770273208618164      1.249350190162659      1.696999549865723
H       2.773540496826172      1.202649354934692     -1.654103517532349
H      -3.323504924774170     -1.358389258384705     -1.273846864700317
H      -5.034275531768799     -1.804087758064270     -1.372424721717834
H      -5.264359474182129     -0.602960884571075      1.811958193778992
H      -2.970940351486206      0.336945682764053      1.224413514137268
H      -1.986056685447693      0.220743313431740     -1.171535134315491
H      -3.414777517318726      1.491447806358337     -1.378011822700500
H      -1.393693804740906      2.616753339767456     -0.928126871585846
H      -2.510495901107788      2.664968490600586      0.456593334674835
H      -0.305407762527466      2.811101436614990      1.186707496643066
H       0.354972839355469     -1.597409486770630      1.507024288177490
H       1.379837751388550      1.231464266777039      1.949356079101562
H       4.130407333374023     -1.995926737785339      0.590351283550262
H       0.547421574592590      0.567212402820587     -0.758510708808899
H       2.280895709991455     -0.794697403907776     -1.205151677131653
H       1.962303161621094     -3.054765939712524      0.587841928005219
H       0.636328279972076     -3.810693979263306     -1.501975297927856
H       4.498621940612793     -1.049131155014038     -0.660572171211243
H       2.255676746368408     -3.263657808303833     -1.835693120956421
H      -0.444337725639343     -2.940199375152588      0.643064916133881
H      -0.624186098575592     -1.364162564277649     -0.014308073557913
H       0.881776571273804     -2.147294282913208     -2.229946851730347
N       3.793545007705688     -1.785183787345886     -0.347818195819855
N       1.513960838317871      0.670691609382629      1.051852941513062
N      -3.435501337051392      0.312390446662903      0.359499961137772
N      -5.193496227264404     -1.209424972534180      0.997025728225708
N      -4.298346519470215     -1.069630026817322     -1.157226204872131
O       1.374447822570801      3.529702901840210     -0.211505383253098
O       3.085199594497681     -0.669985175132751      2.012201070785522
O       2.509684324264526      2.142544984817505     -1.467099070549011
