44
Energy: -695.8192734188198 Ha
C       2.765163898468018     -2.787616014480591     -0.426840752363205
C      -1.610308647155762     -2.365871191024780      1.041710615158081
C      -3.623715639114380     -0.821461439132690      0.341454714536667
C      -3.915238618850708      0.374480158090591     -0.387519210577011
C      -1.483102202415466      1.553609132766724     -0.172527402639389
C      -0.625064253807068      2.741627931594849      0.511929869651794
C      -3.044919729232788      1.574139952659607     -0.024882918223739
C       1.766465187072754      2.322586536407471     -0.394378066062927
C       3.210980176925659      1.897907733917236     -0.484551489353180
C       3.460120439529419      0.398358225822449     -0.574151813983917
C       2.942930221557617     -0.521981358528137      0.735254406929016
C       3.327683210372925     -2.010883092880249      0.771623075008392
C       0.908217906951904      2.376345634460449      0.807059943675995
H      -3.190443038940430      1.865201473236084      1.017441630363464
H      -0.721237659454346      3.559384107589722     -0.193021386861801
H      -1.152701258659363      0.420989662408829      0.106467947363853
H      -1.117649078369141      1.652191519737244     -1.303516268730164
H      -3.204566240310669      2.591799736022949     -0.429920524358749
H      -4.991522789001465      0.591449737548828      0.026782458648086
H      -1.282561898231506     -3.303318738937378      0.504452884197235
H      -4.223601818084717     -1.783121824264526      0.227872103452682
H      -3.660169601440430     -0.652302920818329      1.389934301376343
H      -0.568324863910675     -1.836202621459961      1.224884271621704
H      -2.126875162124634     -2.436963081359863      2.105161428451538
H      -0.890488922595978      3.310778141021729      1.365522503852844
H      -3.982627868652344      0.201181605458260     -1.609445571899414
H       1.393669843673706      3.108689308166504      1.682709813117981
H       4.598801612854004      0.390491068363190     -0.660291373729706
H       1.811992883682251      3.367074251174927     -0.710877299308777
H       1.239842414855957      1.660520911216736     -1.138136982917786
H       3.655581235885620      2.202404260635376     -1.496054291725159
H       3.995937585830688      2.252191066741943      0.229992046952248
H       2.821336269378662      0.241174638271332     -1.438490748405457
H       3.241261005401611      0.058697570115328      1.746253490447998
H       1.812890052795410     -0.693942785263062      0.713265299797058
H       3.041558980941772     -2.546189308166504      1.750461339950562
H       4.503475189208984     -1.980396986007690      0.511397480964661
H       3.805912733078003     -2.341967582702637     -1.027456641197205
H       2.691668272018433     -3.955064535140991     -0.249017179012299
H       1.790820479393005     -2.337453603744507     -0.774518966674805
H       0.934557199478149      1.346043586730957      1.287628054618835
N      -1.672675251960754     -1.055887341499329     -1.059694886207581
N      -2.284299373626709     -1.293115615844727      0.192188605666161
O      -0.875373244285583     -2.112221479415894     -1.156502723693848
