49
Energy: -774.3945954276729 Ha
C       4.586101055145264     -0.789792537689209     -0.110904805362225
C      -1.273314476013184     -2.109844207763672      1.305727124214172
C       0.544048547744751     -1.959177136421204     -0.724018633365631
C      -0.845128536224365     -1.874649167060852     -1.063325762748718
C      -1.774806141853333     -1.978310108184814      0.018230004236102
C      -3.294660329818726     -2.014949560165405     -0.201333552598953
C      -4.033060073852539     -0.728347003459930      0.087763585150242
C      -3.585610628128052      0.440851688385010     -0.775530815124512
C       0.121929489076138     -2.027058601379395      1.504160761833191
C      -1.843668818473816      2.288357496261597     -0.825278818607330
C      -1.046947717666626      3.328179359436035      0.006322677247226
C      -0.101655833423138      2.917400121688843      1.135925173759460
C       0.872982859611511      1.792777895927429      0.662937343120575
C       1.992800831794739      2.165757894515991     -0.294151067733765
C       2.906484842300415      1.039847493171692     -0.613494873046875
C       3.814583301544189      0.356183916330338      0.500321984291077
C      -2.608306169509888      1.299664974212646      0.020492728799582
H      -1.155977368354797      1.772941708564758     -1.466689348220825
H      -1.928280830383301      0.603235065937042      0.503873586654663
H      -3.082745790481567      1.790947318077087      0.856995701789856
H      -4.450082302093506      1.032905936241150     -1.087225198745728
H      -3.072169303894043      0.091296315193176     -1.714382410049438
H      -5.088143825531006     -0.952733635902405     -0.099328435957432
H      -1.154235243797302     -1.738250970840454     -2.097618341445923
H      -3.533566713333130     -2.338833332061768     -1.204251408576965
H      -3.784616231918335     -2.797742366790771      0.438825368881226
H       1.218909263610840     -1.939459204673767     -1.601653218269348
H       0.559999287128448     -2.130436658859253      2.533044099807739
H      -1.918365597724915     -2.264998197555542      2.154859781265259
H      -2.533833503723145      2.890784025192261     -1.431913375854492
H      -4.020237445831299     -0.482095986604691      1.136994719505310
H      -0.539700865745544      3.993987321853638     -0.668663501739502
H       2.274162530899048      0.286185681819916     -1.049110531806946
H      -0.723158180713654      2.670871496200562      2.011375665664673
H       0.473436355590820      3.820801496505737      1.397445678710938
H       0.354769170284271      0.990882694721222      0.173627912998199
H       1.299014329910278      1.281206369400024      1.514970541000366
H       2.609958648681641      2.981223106384277      0.121542409062386
H       1.524751305580139      2.508752822875977     -1.241253137588501
H       3.575859785079956      1.376867175102234     -1.429053306579590
H       4.512453556060791      1.074456214904785      0.949284613132477
H       3.141211748123169     -0.024778926745057      1.312314510345459
H       5.303982257843018     -1.246847271919250      0.645117878913879
H       5.248422145843506     -0.315748542547226     -0.852073848247528
H       3.008144378662109     -2.036133289337158     -0.281430155038834
H       3.427560806274414     -1.281079411506653     -1.624798417091370
H      -1.786547541618347      4.014663696289062      0.474851995706558
N       3.841137886047363     -1.783923029899597     -0.836820900440216
N       0.965775251388550     -2.003823757171631      0.525572597980499
