50
Energy: -770.4516410743896 Ha
C      -3.562216281890869     -1.429192066192627      1.932305932044983
C      -0.103216849267483      3.130553245544434     -1.782961487770081
C       0.703529894351959      3.706890583038330     -0.619456529617310
C       0.054468717426062      2.153049468994141      1.353454232215881
C       1.408480882644653      0.025375446304679      2.627304553985596
C       2.145916461944580     -1.788363337516785      1.196635603904724
C       3.118330955505371     -2.141131401062012      0.228622525930405
C       0.175977632403374      0.770589947700500      1.928983211517334
C       1.905279159545898     -1.494682192802429     -2.026033639907837
C      -0.201602697372437     -0.542636990547180     -2.400120019912720
C      -1.658898711204529     -0.335647106170654     -1.794380426406860
C      -2.407392501831055     -1.321197271347046     -0.851498365402222
C      -3.739802837371826     -0.350821316242218      0.799715399742126
C       2.970087051391602     -1.834841132164001     -1.021497011184692
H      -0.132209569215775      0.190178334712982      1.095265626907349
H       2.271228551864624     -2.206250190734863      2.234483242034912
H       2.167600631713867      0.169511958956718      0.720092892646790
H       0.876819252967834     -0.918677747249603      2.930184602737427
H       1.754451751708984      0.558427214622498      3.591457366943359
H      -0.591159999370575      0.782230257987976      2.681607007980347
H      -0.057752821594477      2.869996070861816      2.071398496627808
H       0.054275371134281      3.932892560958862     -2.718830347061157
H       2.041938304901123      3.136928081512451      0.927661240100861
H       1.776636838912964      4.176753520965576     -0.969200015068054
H       0.143991217017174      4.524655342102051     -0.131071060895920
H      -1.220307707786560      3.684927463531494     -1.142266631126404
H      -0.145625129342079      1.748545765876770     -1.910236597061157
H       1.155231118202209     -2.168673276901245      0.822510778903961
H      -0.900245606899261      2.202525854110718      0.759726226329803
H       4.056733131408691     -2.662609100341797      0.691637575626373
H       0.053764667361975      0.490835100412369     -2.937893629074097
H       2.220521688461304     -0.818776488304138     -2.814167499542236
H      -3.238883495330811     -0.791260838508606      2.843479156494141
H      -2.639900445938110     -1.928272008895874      1.756098389625549
H      -4.408414363861084     -2.078039407730103      2.003878355026245
H      -4.854742050170898     -0.184331029653549      1.054474949836731
H      -3.302731037139893      0.720709800720215      1.165197849273682
H       3.793311834335327     -2.101051330566406     -1.713837623596191
H      -1.823146700859070     -1.545343875885010      0.074091501533985
H      -4.574395656585693     -1.266167402267456     -0.764038324356079
H      -2.317434072494507      0.101700007915497     -2.518535614013672
H      -1.551430821418762      0.636028289794922     -1.057586073875427
H      -0.436629652976990     -1.380449175834656     -3.117257833480835
H       0.884896636009216     -0.223046615719795     -0.737884759902954
H       1.684823513031006     -2.633120775222778     -2.308799505233765
H      -2.516454458236694     -2.689877510070801     -1.070334434509277
N       2.426684617996216     -0.310485899448395      1.664870619773865
N      -3.740708112716675     -0.701400160789490     -0.595956683158875
N       0.769766569137573     -0.992976248264313     -1.379543662071228
N       1.247341752052307      2.630780458450317      0.462380141019821
