55
Energy: -818.4931304724928 Ha
C      -0.043489325791597      3.429275512695312     -1.166043519973755
C      -3.679462194442749      2.008204460144043      0.062126901000738
C      -2.656486511230469      1.083124041557312      0.683395266532898
C      -3.616207361221313     -0.274464488029480      1.089914321899414
C      -2.540453195571899     -1.260918498039246      1.516333699226379
C      -1.983951687812805     -2.223635911941528     -0.840869367122650
C      -0.549815177917480     -1.705701231956482     -1.055087566375732
C       0.389755219221115     -2.901598691940308     -0.704798638820648
C      -2.197064876556396     -2.650135993957520      0.718421339988708
C       2.777548551559448     -1.749829649925232     -1.043211460113525
C       3.377495765686035     -1.680643558502197      0.388370662927628
C       2.151087760925293     -0.688152074813843      1.206964373588562
C       2.657700538635254      0.618705809116364      1.760335087776184
C       2.729367256164551      1.774891734123230      0.811959326267242
C       1.295724987983704      1.926630854606628      0.160116493701935
C       1.376837134361267      3.139194488525391     -0.689716339111328
C       1.838698148727417     -2.941062211990356     -1.202394843101501
H      -3.011148691177368     -3.570328235626221      0.918126165866852
H      -0.123260580003262     -3.811528205871582     -0.680096149444580
H      -0.481985062360764     -1.585891485214233     -2.098551511764526
H      -0.489152699708939     -0.833125650882721     -0.351043671369553
H      -3.016090154647827     -1.746922969818115     -1.213442087173462
H      -2.050062894821167     -3.177083015441895     -1.401750445365906
H      -0.675187349319458     -2.930800437927246      0.925847411155701
H      -1.621318459510803     -0.809952378273010      1.840783119201660
H      -4.091992378234863      1.405555486679077     -1.967295050621033
H      -4.340665340423584     -0.704865217208862      0.016999226063490
H      -4.601657867431641      0.116616427898407      1.799018144607544
H      -1.698469758033752      1.068593502044678     -0.316183924674988
H      -2.289182186126709      1.690044403076172      1.737773060798645
H      -4.249342441558838      2.661573648452759      0.760091364383698
H      -2.886088848114014      2.719131469726562     -0.453298509120941
H       0.628744304180145     -2.927012681961060      0.304086118936539
H      -2.764718055725098     -1.560967564582825      2.548505783081055
H       2.165177583694458     -4.008024692535400     -0.780905961990356
H       3.645742654800415      0.531203269958496      2.268629074096680
H       2.496362924575806     -0.807332694530487     -1.380600094795227
H      -0.278733223676682      2.705889225006104     -1.825641989707947
H      -0.227222293615341      4.442107200622559     -1.630056381225586
H      -0.708940327167511      3.195412397384644     -0.243334323167801
H       1.916712760925293      3.192319154739380     -1.612102866172791
H       1.851840734481812      4.121435165405273     -0.205393537878990
H       1.429520487785339      1.022080540657043     -0.677164852619171
H       0.542509496212006      1.657041072845459      0.983969748020172
H       1.673001766204834     -3.310443878173828     -2.313064098358154
H       3.025211811065674      2.805380821228027      1.309941053390503
H       2.207737922668457      0.893420279026031      2.616718769073486
H       1.736193776130676     -1.088610053062439      2.201709747314453
H       1.267388939857483     -0.518616676330566      0.594104349613190
H       4.150957107543945     -0.827719688415527      0.457167267799377
H       3.489081621170044     -2.602186203002930      0.974765777587891
H       3.654943704605103     -2.062857866287231     -1.635162830352783
H       4.485589504241943      2.048859119415283     -0.131251752376556
O       3.573464632034302      2.000904321670532     -0.386110275983810
O      -4.664115905761719      1.397132992744446     -1.053488612174988
