2
Energy: -109.42630563454085 Ha
N       0.000000000000000      0.000000000000000      0.572888255119324
N       0.000000000000000     -0.000000000000000     -0.572888255119324
